<?xml version="1.0" encoding="UTF-8"?>

<!-- generated on 2026-03-31T14:49:12.040571+08:00 by Eclipse SUMO sumo 1.26.0
<sumoConfiguration xmlns:xsi="http://www.w3.org/2001/XMLSchema-instance" xsi:noNamespaceSchemaLocation="http://sumo.dlr.de/xsd/sumoConfiguration.xsd">

    <input>
        <net-file value="D:\FYP\DQNVersion1\SmallTestingMap\map.net.xml"/>
        <route-files value="D:\FYP\DQNVersion1\SmallTestingMap\map.rou.xml,D:\FYP\DQNVersion1\SmallTestingMap\persontrips_scale.rou.xml"/>
    </input>

    <output>
        <tripinfo-output value="D:\FYP\DQNVersion1\SmallTestingMap\tripinfos.xml"/>
        <stop-output value="D:\FYP\DQNVersion1\SmallTestingMap\stopinfos.xml"/>
        <statistic-output value="D:\FYP\DQNVersion1\SmallTestingMap\stats.xml"/>
    </output>

    <time>
        <step-length value="1.0"/>
    </time>

    <report>
        <verbose value="true"/>
        <duration-log.statistics value="true"/>
        <no-step-log value="true"/>
    </report>

    <taxi_device>
        <device.taxi.dispatch-algorithm value="traci"/>
        <device.taxi.idle-algorithm value="stop"/>
    </taxi_device>

    <traci_server>
        <remote-port value="57822"/>
    </traci_server>

</sumoConfiguration>
-->

<tripinfos xmlns:xsi="http://www.w3.org/2001/XMLSchema-instance" xsi:noNamespaceSchemaLocation="http://sumo.dlr.de/xsd/tripinfo_file.xsd">
    <personinfo id="0" depart="0.00" type="DEFAULT_PEDTYPE" speedFactor="1.01" duration="150.00" waitingTime="61.00" timeLoss="6.69" traveltime="89.00">
        <ride waitingTime="61.00" vehicle="t_1" depart="61.00" arrival="150.00" arrivalPos="0.20" duration="89.00" routeLength="213.44" timeLoss="6.69"/>
    </personinfo>
    <personinfo id="1" depart="24.00" type="DEFAULT_PEDTYPE" speedFactor="1.08" duration="148.00" waitingTime="33.00" timeLoss="10.16" traveltime="115.00">
        <ride waitingTime="33.00" vehicle="t_0" depart="57.00" arrival="172.00" arrivalPos="83.20" duration="115.00" routeLength="551.75" timeLoss="10.16"/>
    </personinfo>
    <personinfo id="2" depart="234.00" type="DEFAULT_PEDTYPE" speedFactor="1.12" duration="125.00" waitingTime="31.00" timeLoss="7.38" traveltime="94.00">
        <ride waitingTime="31.00" vehicle="t_1" depart="265.00" arrival="359.00" arrivalPos="0.20" duration="94.00" routeLength="278.79" timeLoss="7.38"/>
    </personinfo>
    <personinfo id="3" depart="431.00" type="DEFAULT_PEDTYPE" speedFactor="0.90" duration="164.00" waitingTime="81.00" timeLoss="4.00" traveltime="83.00">
        <ride waitingTime="81.00" vehicle="t_1" depart="512.00" arrival="595.00" arrivalPos="0.20" duration="83.00" routeLength="178.02" timeLoss="4.00"/>
    </personinfo>
    <personinfo id="4" depart="454.00" type="DEFAULT_PEDTYPE" speedFactor="0.88" duration="161.00" waitingTime="45.00" timeLoss="37.69" traveltime="116.00">
        <ride waitingTime="45.00" vehicle="t_0" depart="499.00" arrival="615.00" arrivalPos="0.20" duration="116.00" routeLength="199.99" timeLoss="37.69"/>
    </personinfo>
    <personinfo id="5" depart="642.00" type="DEFAULT_PEDTYPE" speedFactor="0.91" duration="185.00" waitingTime="84.00" timeLoss="8.03" traveltime="101.00">
        <ride waitingTime="84.00" vehicle="t_1" depart="726.00" arrival="827.00" arrivalPos="0.20" duration="101.00" routeLength="318.68" timeLoss="8.03"/>
    </personinfo>
    <personinfo id="6" depart="839.00" type="DEFAULT_PEDTYPE" speedFactor="1.04" duration="121.00" waitingTime="20.00" timeLoss="8.46" traveltime="101.00">
        <ride waitingTime="20.00" vehicle="t_1" depart="859.00" arrival="960.00" arrivalPos="83.20" duration="101.00" routeLength="338.58" timeLoss="8.46"/>
    </personinfo>
    <personinfo id="7" depart="919.00" type="DEFAULT_PEDTYPE" speedFactor="0.87" duration="141.00" waitingTime="12.00" timeLoss="16.10" traveltime="129.00">
        <ride waitingTime="12.00" vehicle="t_0" depart="931.00" arrival="1060.00" arrivalPos="78.65" duration="129.00" routeLength="275.65" timeLoss="16.10"/>
    </personinfo>
    <personinfo id="8" depart="945.00" type="DEFAULT_PEDTYPE" speedFactor="1.10" duration="194.00" waitingTime="19.00" timeLoss="7.62" traveltime="175.00">
        <ride waitingTime="19.00" vehicle="t_0" depart="964.00" arrival="1139.00" arrivalPos="83.20" duration="175.00" routeLength="175.67" timeLoss="7.62"/>
    </personinfo>
    <personinfo id="9" depart="968.00" type="DEFAULT_PEDTYPE" speedFactor="1.01" duration="197.00" waitingTime="75.00" timeLoss="27.99" traveltime="122.00">
        <ride waitingTime="75.00" vehicle="t_1" depart="1043.00" arrival="1165.00" arrivalPos="83.20" duration="122.00" routeLength="352.21" timeLoss="27.99"/>
    </personinfo>
    <personinfo id="11" depart="1068.00" type="DEFAULT_PEDTYPE" speedFactor="0.92" duration="200.00" waitingTime="113.00" timeLoss="5.79" traveltime="87.00">
        <ride waitingTime="113.00" vehicle="t_1" depart="1181.00" arrival="1268.00" arrivalPos="78.65" duration="87.00" routeLength="180.11" timeLoss="5.79"/>
    </personinfo>
    <personinfo id="10" depart="991.00" type="DEFAULT_PEDTYPE" speedFactor="1.10" duration="362.00" waitingTime="230.00" timeLoss="33.47" traveltime="132.00">
        <ride waitingTime="230.00" vehicle="t_0" depart="1221.00" arrival="1353.00" arrivalPos="79.20" duration="132.00" routeLength="450.80" timeLoss="33.47"/>
    </personinfo>
    <personinfo id="12" depart="1266.00" type="DEFAULT_PEDTYPE" speedFactor="0.94" duration="143.00" waitingTime="56.00" timeLoss="6.58" traveltime="87.00">
        <ride waitingTime="56.00" vehicle="t_1" depart="1322.00" arrival="1409.00" arrivalPos="0.20" duration="87.00" routeLength="178.60" timeLoss="6.58"/>
    </personinfo>
    <personinfo id="13" depart="1291.00" type="DEFAULT_PEDTYPE" speedFactor="0.98" duration="272.00" waitingTime="167.00" timeLoss="6.59" traveltime="105.00">
        <ride waitingTime="167.00" vehicle="t_1" depart="1458.00" arrival="1563.00" arrivalPos="78.65" duration="105.00" routeLength="391.64" timeLoss="6.59"/>
    </personinfo>
    <personinfo id="14" depart="1507.00" type="DEFAULT_PEDTYPE" speedFactor="1.02" duration="223.00" waitingTime="93.00" timeLoss="18.01" traveltime="130.00">
        <ride waitingTime="93.00" vehicle="t_0" depart="1600.00" arrival="1730.00" arrivalPos="78.65" duration="130.00" routeLength="276.21" timeLoss="18.01"/>
    </personinfo>
    <personinfo id="17" depart="1586.00" type="DEFAULT_PEDTYPE" speedFactor="1.11" duration="212.00" waitingTime="25.00" timeLoss="92.39" traveltime="187.00">
        <ride waitingTime="25.00" vehicle="t_1" depart="1611.00" arrival="1798.00" arrivalPos="83.20" duration="187.00" routeLength="361.46" timeLoss="92.39"/>
    </personinfo>
    <personinfo id="15" depart="1533.00" type="DEFAULT_PEDTYPE" speedFactor="1.07" duration="341.00" waitingTime="230.00" timeLoss="10.91" traveltime="111.00">
        <ride waitingTime="230.00" vehicle="t_0" depart="1763.00" arrival="1874.00" arrivalPos="78.65" duration="111.00" routeLength="372.93" timeLoss="10.91"/>
    </personinfo>
    <personinfo id="16" depart="1559.00" type="DEFAULT_PEDTYPE" speedFactor="1.13" duration="450.00" waitingTime="236.00" timeLoss="57.03" traveltime="214.00">
        <ride waitingTime="236.00" vehicle="t_0" depart="1795.00" arrival="2009.00" arrivalPos="79.20" duration="214.00" routeLength="316.46" timeLoss="57.03"/>
    </personinfo>
    <personinfo id="20" depart="1953.00" type="DEFAULT_PEDTYPE" speedFactor="1.05" duration="201.00" waitingTime="80.00" timeLoss="35.54" traveltime="121.00">
        <ride waitingTime="80.00" vehicle="t_1" depart="2033.00" arrival="2154.00" arrivalPos="83.20" duration="121.00" routeLength="266.08" timeLoss="35.54"/>
    </personinfo>
    <personinfo id="18" depart="1663.00" type="DEFAULT_PEDTYPE" speedFactor="0.92" duration="581.00" waitingTime="415.00" timeLoss="55.46" traveltime="166.00">
        <ride waitingTime="415.00" vehicle="t_0" depart="2078.00" arrival="2244.00" arrivalPos="83.20" duration="166.00" routeLength="577.43" timeLoss="55.46"/>
    </personinfo>
    <personinfo id="21" depart="2159.00" type="DEFAULT_PEDTYPE" speedFactor="0.98" duration="134.00" waitingTime="30.00" timeLoss="14.55" traveltime="104.00">
        <ride waitingTime="30.00" vehicle="t_1" depart="2189.00" arrival="2293.00" arrivalPos="0.20" duration="104.00" routeLength="299.96" timeLoss="14.55"/>
    </personinfo>
    <personinfo id="19" depart="1736.00" type="DEFAULT_PEDTYPE" speedFactor="1.03" duration="682.00" waitingTime="342.00" timeLoss="132.14" traveltime="340.00">
        <ride waitingTime="342.00" vehicle="t_0" depart="2078.00" arrival="2418.00" arrivalPos="83.20" duration="340.00" routeLength="958.12" timeLoss="132.14"/>
    </personinfo>
    <personinfo id="22" depart="2182.00" type="DEFAULT_PEDTYPE" speedFactor="1.08" duration="335.00" waitingTime="140.00" timeLoss="90.65" traveltime="195.00">
        <ride waitingTime="140.00" vehicle="t_1" depart="2322.00" arrival="2517.00" arrivalPos="83.20" duration="195.00" routeLength="476.08" timeLoss="90.65"/>
    </personinfo>
    <personinfo id="24" depart="2470.00" type="DEFAULT_PEDTYPE" speedFactor="1.07" duration="165.00" waitingTime="66.00" timeLoss="7.70" traveltime="99.00">
        <ride waitingTime="66.00" vehicle="t_0" depart="2536.00" arrival="2635.00" arrivalPos="79.20" duration="99.00" routeLength="352.27" timeLoss="7.70"/>
    </personinfo>
    <personinfo id="23" depart="2390.00" type="DEFAULT_PEDTYPE" speedFactor="0.97" duration="304.00" waitingTime="180.00" timeLoss="12.31" traveltime="124.00">
        <ride waitingTime="180.00" vehicle="t_1" depart="2570.00" arrival="2694.00" arrivalPos="83.20" duration="124.00" routeLength="577.45" timeLoss="12.31"/>
    </personinfo>
    <personinfo id="25" depart="2496.00" type="DEFAULT_PEDTYPE" speedFactor="0.92" duration="324.00" waitingTime="172.00" timeLoss="66.29" traveltime="152.00">
        <ride waitingTime="172.00" vehicle="t_0" depart="2668.00" arrival="2820.00" arrivalPos="0.20" duration="152.00" routeLength="287.40" timeLoss="66.29"/>
    </personinfo>
    <personinfo id="27" depart="2760.00" type="DEFAULT_PEDTYPE" speedFactor="0.86" duration="257.00" waitingTime="85.00" timeLoss="72.90" traveltime="172.00">
        <ride waitingTime="85.00" vehicle="t_1" depart="2845.00" arrival="3017.00" arrivalPos="78.65" duration="172.00" routeLength="386.53" timeLoss="72.90"/>
    </personinfo>
    <personinfo id="26" depart="2568.00" type="DEFAULT_PEDTYPE" speedFactor="0.94" duration="506.00" waitingTime="364.00" timeLoss="41.11" traveltime="142.00">
        <ride waitingTime="364.00" vehicle="t_0" depart="2932.00" arrival="3074.00" arrivalPos="79.20" duration="142.00" routeLength="453.07" timeLoss="41.11"/>
    </personinfo>
    <personinfo id="28" depart="2841.00" type="DEFAULT_PEDTYPE" speedFactor="0.93" duration="363.00" waitingTime="225.00" timeLoss="38.17" traveltime="138.00">
        <ride waitingTime="225.00" vehicle="t_1" depart="3066.00" arrival="3204.00" arrivalPos="79.20" duration="138.00" routeLength="434.41" timeLoss="38.17"/>
    </personinfo>
    <personinfo id="31" depart="3148.00" type="DEFAULT_PEDTYPE" speedFactor="0.97" duration="162.00" waitingTime="22.00" timeLoss="5.56" traveltime="140.00">
        <ride waitingTime="22.00" vehicle="t_0" depart="3170.00" arrival="3310.00" arrivalPos="78.65" duration="140.00" routeLength="264.81" timeLoss="5.56"/>
    </personinfo>
    <personinfo id="29" depart="2865.00" type="DEFAULT_PEDTYPE" speedFactor="0.97" duration="551.00" waitingTime="384.00" timeLoss="65.10" traveltime="167.00">
        <ride waitingTime="384.00" vehicle="t_1" depart="3249.00" arrival="3416.00" arrivalPos="83.20" duration="167.00" routeLength="476.92" timeLoss="65.10"/>
    </personinfo>
    <personinfo id="32" depart="3175.00" type="DEFAULT_PEDTYPE" speedFactor="1.13" duration="365.00" waitingTime="173.00" timeLoss="97.85" traveltime="192.00">
        <ride waitingTime="173.00" vehicle="t_0" depart="3348.00" arrival="3540.00" arrivalPos="78.65" duration="192.00" routeLength="368.80" timeLoss="97.85"/>
    </personinfo>
    <personinfo id="30" depart="3067.00" type="DEFAULT_PEDTYPE" speedFactor="0.96" duration="492.00" waitingTime="369.00" timeLoss="20.51" traveltime="123.00">
        <ride waitingTime="369.00" vehicle="t_1" depart="3436.00" arrival="3559.00" arrivalPos="78.65" duration="123.00" routeLength="449.67" timeLoss="20.51"/>
    </personinfo>
    <personinfo id="34" depart="3270.00" type="DEFAULT_PEDTYPE" speedFactor="1.04" duration="416.00" waitingTime="300.00" timeLoss="22.10" traveltime="116.00">
        <ride waitingTime="300.00" vehicle="t_1" depart="3570.00" arrival="3686.00" arrivalPos="83.20" duration="116.00" routeLength="361.48" timeLoss="22.10"/>
    </personinfo>
    <personinfo id="33" depart="3244.00" type="DEFAULT_PEDTYPE" speedFactor="1.09" duration="526.00" waitingTime="416.00" timeLoss="10.97" traveltime="110.00">
        <ride waitingTime="416.00" vehicle="t_0" depart="3660.00" arrival="3770.00" arrivalPos="78.65" duration="110.00" routeLength="451.28" timeLoss="10.97"/>
    </personinfo>
    <personinfo id="35" depart="3346.00" type="DEFAULT_PEDTYPE" speedFactor="0.91" duration="564.00" waitingTime="442.00" timeLoss="34.50" traveltime="122.00">
        <ride waitingTime="442.00" vehicle="t_1" depart="3788.00" arrival="3910.00" arrivalPos="79.20" duration="122.00" routeLength="261.02" timeLoss="34.50"/>
    </personinfo>
    <personinfo id="37" depart="3780.00" type="DEFAULT_PEDTYPE" speedFactor="0.91" duration="206.00" waitingTime="52.00" timeLoss="31.21" traveltime="154.00">
        <ride waitingTime="52.00" vehicle="t_0" depart="3832.00" arrival="3986.00" arrivalPos="83.20" duration="154.00" routeLength="790.07" timeLoss="31.21"/>
    </personinfo>
    <personinfo id="36" depart="3566.00" type="DEFAULT_PEDTYPE" speedFactor="1.03" duration="572.00" waitingTime="422.00" timeLoss="50.02" traveltime="150.00">
        <ride waitingTime="422.00" vehicle="t_1" depart="3988.00" arrival="4138.00" arrivalPos="78.65" duration="150.00" routeLength="387.93" timeLoss="50.02"/>
    </personinfo>
    <personinfo id="39" depart="4044.00" type="DEFAULT_PEDTYPE" speedFactor="0.94" duration="172.00" waitingTime="48.00" timeLoss="36.87" traveltime="124.00">
        <ride waitingTime="48.00" vehicle="t_0" depart="4092.00" arrival="4216.00" arrivalPos="83.20" duration="124.00" routeLength="262.19" timeLoss="36.87"/>
    </personinfo>
    <personinfo id="40" depart="4118.00" type="DEFAULT_PEDTYPE" speedFactor="1.07" duration="302.00" waitingTime="138.00" timeLoss="17.58" traveltime="164.00">
        <ride waitingTime="138.00" vehicle="t_0" depart="4256.00" arrival="4420.00" arrivalPos="0.20" duration="164.00" routeLength="255.32" timeLoss="17.58"/>
    </personinfo>
    <personinfo id="38" depart="3965.00" type="DEFAULT_PEDTYPE" speedFactor="0.90" duration="474.00" waitingTime="328.00" timeLoss="58.02" traveltime="146.00">
        <ride waitingTime="328.00" vehicle="t_1" depart="4293.00" arrival="4439.00" arrivalPos="79.20" duration="146.00" routeLength="280.67" timeLoss="58.02"/>
    </personinfo>
    <personinfo id="43" depart="4438.00" type="DEFAULT_PEDTYPE" speedFactor="1.11" duration="107.00" waitingTime="20.00" timeLoss="5.39" traveltime="87.00">
        <ride waitingTime="20.00" vehicle="t_1" depart="4458.00" arrival="4545.00" arrivalPos="79.20" duration="87.00" routeLength="206.83" timeLoss="5.39"/>
    </personinfo>
    <personinfo id="41" depart="4333.00" type="DEFAULT_PEDTYPE" speedFactor="0.93" duration="242.00" waitingTime="127.00" timeLoss="29.45" traveltime="115.00">
        <ride waitingTime="127.00" vehicle="t_0" depart="4460.00" arrival="4575.00" arrivalPos="0.20" duration="115.00" routeLength="290.25" timeLoss="29.45"/>
    </personinfo>
    <personinfo id="42" depart="4358.00" type="DEFAULT_PEDTYPE" speedFactor="0.99" duration="577.00" waitingTime="338.00" timeLoss="130.20" traveltime="239.00">
        <ride waitingTime="338.00" vehicle="t_0" depart="4696.00" arrival="4935.00" arrivalPos="78.65" duration="239.00" routeLength="564.38" timeLoss="130.20"/>
    </personinfo>
    <personinfo id="45" depart="4680.00" type="DEFAULT_PEDTYPE" speedFactor="1.17" duration="303.00" waitingTime="106.00" timeLoss="86.22" traveltime="197.00">
        <ride waitingTime="106.00" vehicle="t_1" depart="4786.00" arrival="4983.00" arrivalPos="83.20" duration="197.00" routeLength="553.31" timeLoss="86.22"/>
    </personinfo>
    <personinfo id="44" depart="4461.00" type="DEFAULT_PEDTYPE" speedFactor="0.97" duration="729.00" waitingTime="540.00" timeLoss="34.47" traveltime="189.00">
        <ride waitingTime="540.00" vehicle="t_0" depart="5001.00" arrival="5190.00" arrivalPos="78.65" duration="189.00" routeLength="464.33" timeLoss="34.47"/>
    </personinfo>
    <personinfo id="46" depart="4872.00" type="DEFAULT_PEDTYPE" speedFactor="0.92" duration="338.00" waitingTime="185.00" timeLoss="8.02" traveltime="153.00">
        <ride waitingTime="185.00" vehicle="t_1" depart="5057.00" arrival="5210.00" arrivalPos="0.20" duration="153.00" routeLength="314.65" timeLoss="8.02"/>
    </personinfo>
    <personinfo id="47" depart="4953.00" type="DEFAULT_PEDTYPE" speedFactor="1.01" duration="441.00" waitingTime="269.00" timeLoss="79.13" traveltime="172.00">
        <ride waitingTime="269.00" vehicle="t_0" depart="5222.00" arrival="5394.00" arrivalPos="83.20" duration="172.00" routeLength="373.00" timeLoss="79.13"/>
    </personinfo>
    <personinfo id="48" depart="5024.00" type="DEFAULT_PEDTYPE" speedFactor="1.00" duration="409.00" waitingTime="304.00" timeLoss="11.06" traveltime="105.00">
        <ride waitingTime="304.00" vehicle="t_1" depart="5328.00" arrival="5433.00" arrivalPos="79.20" duration="105.00" routeLength="340.09" timeLoss="11.06"/>
    </personinfo>
    <personinfo id="53" depart="5149.00" type="DEFAULT_PEDTYPE" speedFactor="1.09" duration="388.00" waitingTime="306.00" timeLoss="2.97" traveltime="82.00">
        <ride waitingTime="306.00" vehicle="t_1" depart="5455.00" arrival="5537.00" arrivalPos="78.65" duration="82.00" routeLength="162.22" timeLoss="2.97"/>
    </personinfo>
    <personinfo id="51" depart="5098.00" type="DEFAULT_PEDTYPE" speedFactor="1.03" duration="512.00" waitingTime="401.00" timeLoss="2.71" traveltime="111.00">
        <ride waitingTime="401.00" vehicle="t_0" depart="5499.00" arrival="5610.00" arrivalPos="79.20" duration="111.00" routeLength="279.48" timeLoss="2.71"/>
    </personinfo>
    <personinfo id="49" depart="5047.00" type="DEFAULT_PEDTYPE" speedFactor="1.03" duration="703.00" waitingTime="541.00" timeLoss="10.54" traveltime="162.00">
        <ride waitingTime="541.00" vehicle="t_1" depart="5588.00" arrival="5750.00" arrivalPos="78.65" duration="162.00" routeLength="376.43" timeLoss="10.54"/>
    </personinfo>
    <personinfo id="52" depart="5122.00" type="DEFAULT_PEDTYPE" speedFactor="1.12" duration="666.00" waitingTime="565.00" timeLoss="7.27" traveltime="101.00">
        <ride waitingTime="565.00" vehicle="t_0" depart="5687.00" arrival="5788.00" arrivalPos="78.65" duration="101.00" routeLength="362.25" timeLoss="7.27"/>
    </personinfo>
    <personinfo id="55" depart="5543.00" type="DEFAULT_PEDTYPE" speedFactor="0.96" duration="400.00" waitingTime="277.00" timeLoss="32.89" traveltime="123.00">
        <ride waitingTime="277.00" vehicle="t_0" depart="5820.00" arrival="5943.00" arrivalPos="78.65" duration="123.00" routeLength="299.44" timeLoss="32.89"/>
    </personinfo>
    <personinfo id="54" depart="5337.00" type="DEFAULT_PEDTYPE" speedFactor="1.15" duration="606.00" waitingTime="521.00" timeLoss="4.07" traveltime="85.00">
        <ride waitingTime="521.00" vehicle="t_1" depart="5858.00" arrival="5943.00" arrivalPos="83.20" duration="85.00" routeLength="164.07" timeLoss="4.07"/>
    </personinfo>
    <personinfo id="56" depart="5612.00" type="DEFAULT_PEDTYPE" speedFactor="1.05" duration="525.00" waitingTime="380.00" timeLoss="30.47" traveltime="145.00">
        <ride waitingTime="380.00" vehicle="t_0" depart="5992.00" arrival="6137.00" arrivalPos="83.20" duration="145.00" routeLength="688.82" timeLoss="30.47"/>
    </personinfo>
    <personinfo id="50" depart="5075.00" type="DEFAULT_PEDTYPE" speedFactor="1.18" duration="1115.00" waitingTime="918.00" timeLoss="61.91" traveltime="197.00">
        <ride waitingTime="918.00" vehicle="t_1" depart="5993.00" arrival="6190.00" arrivalPos="83.20" duration="197.00" routeLength="363.59" timeLoss="61.91"/>
    </personinfo>
    <personinfo id="57" depart="5680.00" type="DEFAULT_PEDTYPE" speedFactor="0.80" duration="620.00" waitingTime="581.00" timeLoss="8.73" traveltime="39.00">
        <ride waitingTime="581.00" vehicle="t_1" depart="6261.00" arrival="6300.00" arrivalPos="0.20" duration="39.00" routeLength="282.59" timeLoss="8.73"/>
    </personinfo>
    <personinfo id="58" depart="5869.00" type="DEFAULT_PEDTYPE" speedFactor="1.15" duration="441.00" waitingTime="299.00" timeLoss="37.58" traveltime="142.00">
        <ride waitingTime="299.00" vehicle="t_0" depart="6168.00" arrival="6310.00" arrivalPos="83.20" duration="142.00" routeLength="555.68" timeLoss="37.58"/>
    </personinfo>
    <personinfo id="60" depart="6120.00" type="DEFAULT_PEDTYPE" speedFactor="1.13" duration="301.00" waitingTime="190.00" timeLoss="31.45" traveltime="111.00">
        <ride waitingTime="190.00" vehicle="t_1" depart="6310.00" arrival="6421.00" arrivalPos="0.20" duration="111.00" routeLength="176.25" timeLoss="31.45"/>
    </personinfo>
    <personinfo id="59" depart="6051.00" type="DEFAULT_PEDTYPE" speedFactor="1.14" duration="423.00" waitingTime="290.00" timeLoss="34.53" traveltime="133.00">
        <ride waitingTime="290.00" vehicle="t_0" depart="6341.00" arrival="6474.00" arrivalPos="83.20" duration="133.00" routeLength="461.44" timeLoss="34.53"/>
    </personinfo>
    <personinfo id="61" depart="6319.00" type="DEFAULT_PEDTYPE" speedFactor="1.01" duration="289.00" waitingTime="152.00" timeLoss="35.24" traveltime="137.00">
        <ride waitingTime="152.00" vehicle="t_1" depart="6471.00" arrival="6608.00" arrivalPos="83.20" duration="137.00" routeLength="457.22" timeLoss="35.24"/>
    </personinfo>
    <personinfo id="62" depart="6536.00" type="DEFAULT_PEDTYPE" speedFactor="1.19" duration="204.00" waitingTime="27.00" timeLoss="52.83" traveltime="177.00">
        <ride waitingTime="27.00" vehicle="t_0" depart="6563.00" arrival="6740.00" arrivalPos="83.20" duration="177.00" routeLength="350.27" timeLoss="52.83"/>
    </personinfo>
    <personinfo id="63" depart="6608.00" type="DEFAULT_PEDTYPE" speedFactor="1.11" duration="193.00" waitingTime="40.00" timeLoss="51.07" traveltime="153.00">
        <ride waitingTime="40.00" vehicle="t_1" depart="6648.00" arrival="6801.00" arrivalPos="78.65" duration="153.00" routeLength="452.12" timeLoss="51.07"/>
    </personinfo>
    <personinfo id="64" depart="6678.00" type="DEFAULT_PEDTYPE" speedFactor="1.09" duration="206.00" waitingTime="105.00" timeLoss="6.63" traveltime="101.00">
        <ride waitingTime="105.00" vehicle="t_0" depart="6783.00" arrival="6884.00" arrivalPos="79.20" duration="101.00" routeLength="376.17" timeLoss="6.63"/>
    </personinfo>
    <personinfo id="65" depart="6751.00" type="DEFAULT_PEDTYPE" speedFactor="1.19" duration="308.00" waitingTime="195.00" timeLoss="24.57" traveltime="113.00">
        <ride waitingTime="195.00" vehicle="t_0" depart="6946.00" arrival="7059.00" arrivalPos="79.20" duration="113.00" routeLength="305.37" timeLoss="24.57"/>
    </personinfo>
    <personinfo id="66" depart="6933.00" type="DEFAULT_PEDTYPE" speedFactor="0.90" duration="217.00" waitingTime="109.00" timeLoss="12.41" traveltime="108.00">
        <ride waitingTime="109.00" vehicle="t_1" depart="7042.00" arrival="7150.00" arrivalPos="78.65" duration="108.00" routeLength="342.33" timeLoss="12.41"/>
    </personinfo>
    <personinfo id="67" depart="6956.00" type="DEFAULT_PEDTYPE" speedFactor="0.92" duration="310.00" waitingTime="217.00" timeLoss="7.71" traveltime="93.00">
        <ride waitingTime="217.00" vehicle="t_1" depart="7173.00" arrival="7266.00" arrivalPos="79.20" duration="93.00" routeLength="246.40" timeLoss="7.71"/>
    </personinfo>
    <personinfo id="70" depart="7120.00" type="DEFAULT_PEDTYPE" speedFactor="0.99" duration="200.00" waitingTime="47.00" timeLoss="53.28" traveltime="153.00">
        <ride waitingTime="47.00" vehicle="t_0" depart="7167.00" arrival="7320.00" arrivalPos="83.20" duration="153.00" routeLength="442.71" timeLoss="53.28"/>
    </personinfo>
    <personinfo id="68" depart="6979.00" type="DEFAULT_PEDTYPE" speedFactor="0.95" duration="522.00" waitingTime="373.00" timeLoss="51.59" traveltime="149.00">
        <ride waitingTime="373.00" vehicle="t_1" depart="7352.00" arrival="7501.00" arrivalPos="79.20" duration="149.00" routeLength="376.34" timeLoss="51.59"/>
    </personinfo>
    <personinfo id="72" depart="7332.00" type="DEFAULT_PEDTYPE" speedFactor="0.96" duration="234.00" waitingTime="101.00" timeLoss="31.70" traveltime="133.00">
        <ride waitingTime="101.00" vehicle="t_0" depart="7433.00" arrival="7566.00" arrivalPos="83.20" duration="133.00" routeLength="445.33" timeLoss="31.70"/>
    </personinfo>
    <personinfo id="69" depart="7049.00" type="DEFAULT_PEDTYPE" speedFactor="1.09" duration="569.00" waitingTime="472.00" timeLoss="6.25" traveltime="97.00">
        <ride waitingTime="472.00" vehicle="t_1" depart="7521.00" arrival="7618.00" arrivalPos="78.65" duration="97.00" routeLength="299.42" timeLoss="6.25"/>
    </personinfo>
    <personinfo id="71" depart="7304.00" type="DEFAULT_PEDTYPE" speedFactor="1.10" duration="415.00" waitingTime="329.00" timeLoss="5.46" traveltime="86.00">
        <ride waitingTime="329.00" vehicle="t_1" depart="7633.00" arrival="7719.00" arrivalPos="83.20" duration="86.00" routeLength="199.35" timeLoss="5.46"/>
    </personinfo>
    <personinfo id="73" depart="7355.00" type="DEFAULT_PEDTYPE" speedFactor="0.96" duration="465.00" waitingTime="231.00" timeLoss="79.41" traveltime="234.00">
        <ride waitingTime="231.00" vehicle="t_0" depart="7586.00" arrival="7820.00" arrivalPos="83.20" duration="234.00" routeLength="629.74" timeLoss="79.41"/>
    </personinfo>
    <personinfo id="74" depart="7382.00" type="DEFAULT_PEDTYPE" speedFactor="0.77" duration="463.00" waitingTime="368.00" timeLoss="8.02" traveltime="95.00">
        <ride waitingTime="368.00" vehicle="t_1" depart="7750.00" arrival="7845.00" arrivalPos="78.65" duration="95.00" routeLength="256.10" timeLoss="8.02"/>
    </personinfo>
    <personinfo id="75" depart="7449.00" type="DEFAULT_PEDTYPE" speedFactor="0.91" duration="510.00" waitingTime="409.00" timeLoss="10.52" traveltime="101.00">
        <ride waitingTime="409.00" vehicle="t_0" depart="7858.00" arrival="7959.00" arrivalPos="79.20" duration="101.00" routeLength="306.10" timeLoss="10.52"/>
    </personinfo>
    <personinfo id="76" depart="7521.00" type="DEFAULT_PEDTYPE" speedFactor="1.01" duration="499.00" waitingTime="334.00" timeLoss="18.45" traveltime="165.00">
        <ride waitingTime="334.00" vehicle="t_1" depart="7855.00" arrival="8020.00" arrivalPos="83.20" duration="165.00" routeLength="253.80" timeLoss="18.45"/>
    </personinfo>
    <personinfo id="78" depart="7751.00" type="DEFAULT_PEDTYPE" speedFactor="1.05" duration="395.00" waitingTime="267.00" timeLoss="15.11" traveltime="128.00">
        <ride waitingTime="267.00" vehicle="t_0" depart="8018.00" arrival="8146.00" arrivalPos="83.20" duration="128.00" routeLength="656.22" timeLoss="15.11"/>
    </personinfo>
    <personinfo id="77" depart="7727.00" type="DEFAULT_PEDTYPE" speedFactor="1.02" duration="503.00" waitingTime="330.00" timeLoss="39.39" traveltime="173.00">
        <ride waitingTime="330.00" vehicle="t_1" depart="8057.00" arrival="8230.00" arrivalPos="83.20" duration="173.00" routeLength="648.06" timeLoss="39.39"/>
    </personinfo>
    <personinfo id="80" depart="7976.00" type="DEFAULT_PEDTYPE" speedFactor="1.01" duration="348.00" waitingTime="247.00" timeLoss="6.76" traveltime="101.00">
        <ride waitingTime="247.00" vehicle="t_0" depart="8223.00" arrival="8324.00" arrivalPos="79.20" duration="101.00" routeLength="372.76" timeLoss="6.76"/>
    </personinfo>
    <personinfo id="79" depart="7953.00" type="DEFAULT_PEDTYPE" speedFactor="0.88" duration="421.00" waitingTime="346.00" timeLoss="2.38" traveltime="75.00">
        <ride waitingTime="346.00" vehicle="t_1" depart="8299.00" arrival="8374.00" arrivalPos="78.65" duration="75.00" routeLength="94.94" timeLoss="2.38"/>
    </personinfo>
    <personinfo id="82" depart="8185.00" type="DEFAULT_PEDTYPE" speedFactor="0.90" duration="295.00" waitingTime="191.00" timeLoss="8.94" traveltime="104.00">
        <ride waitingTime="191.00" vehicle="t_0" depart="8376.00" arrival="8480.00" arrivalPos="0.20" duration="104.00" routeLength="278.55" timeLoss="8.94"/>
    </personinfo>
    <personinfo id="83" depart="8210.00" type="DEFAULT_PEDTYPE" speedFactor="0.98" duration="377.00" waitingTime="196.00" timeLoss="24.18" traveltime="181.00">
        <ride waitingTime="196.00" vehicle="t_0" depart="8406.00" arrival="8587.00" arrivalPos="79.20" duration="181.00" routeLength="271.36" timeLoss="24.18"/>
    </personinfo>
    <personinfo id="81" depart="8162.00" type="DEFAULT_PEDTYPE" speedFactor="1.00" duration="506.00" waitingTime="369.00" timeLoss="34.52" traveltime="137.00">
        <ride waitingTime="369.00" vehicle="t_1" depart="8531.00" arrival="8668.00" arrivalPos="78.65" duration="137.00" routeLength="447.16" timeLoss="34.52"/>
    </personinfo>
    <personinfo id="84" depart="8413.00" type="DEFAULT_PEDTYPE" speedFactor="1.00" duration="326.00" waitingTime="196.00" timeLoss="26.09" traveltime="130.00">
        <ride waitingTime="196.00" vehicle="t_0" depart="8609.00" arrival="8739.00" arrivalPos="78.65" duration="130.00" routeLength="539.34" timeLoss="26.09"/>