<?xml version="1.0" encoding="UTF-8"?>

<!-- generated on 2026-03-24T17:23:34.936635+08:00 by Eclipse SUMO sumo 1.26.0
<sumoConfiguration xmlns:xsi="http://www.w3.org/2001/XMLSchema-instance" xsi:noNamespaceSchemaLocation="http://sumo.dlr.de/xsd/sumoConfiguration.xsd">

    <input>
        <net-file value="D:\6Sumo\RealDQN\SmallTestingMap\map.net.xml"/>
        <route-files value="D:\6Sumo\RealDQN\SmallTestingMap\map.rou.xml,D:\6Sumo\RealDQN\SmallTestingMap\persontrips_scale.rou.xml"/>
    </input>

    <output>
        <tripinfo-output value="D:\6Sumo\RealDQN\SmallTestingMap\tripinfos.xml"/>
        <stop-output value="D:\6Sumo\RealDQN\SmallTestingMap\stopinfos.xml"/>
        <statistic-output value="D:\6Sumo\RealDQN\SmallTestingMap\stats.xml"/>
    </output>

    <time>
        <step-length value="1.0"/>
    </time>

    <report>
        <verbose value="true"/>
        <duration-log.statistics value="true"/>
        <no-step-log value="true"/>
    </report>

    <taxi_device>
        <device.taxi.dispatch-algorithm value="traci"/>
    </taxi_device>

    <traci_server>
        <remote-port value="56773"/>
    </traci_server>

</sumoConfiguration>
-->

<tripinfos xmlns:xsi="http://www.w3.org/2001/XMLSchema-instance" xsi:noNamespaceSchemaLocation="http://sumo.dlr.de/xsd/tripinfo_file.xsd">
    <personinfo id="0" depart="0.00" type="DEFAULT_PEDTYPE" speedFactor="1.01" duration="169.00" waitingTime="61.00" timeLoss="9.41" traveltime="108.00">
        <ride waitingTime="61.00" vehicle="t_1" depart="61.00" arrival="169.00" arrivalPos="0.20" duration="108.00" routeLength="364.49" timeLoss="9.41"/>
    </personinfo>
    <personinfo id="1" depart="24.00" type="DEFAULT_PEDTYPE" speedFactor="1.08" duration="330.00" waitingTime="71.00" timeLoss="83.98" traveltime="259.00">
        <ride waitingTime="71.00" vehicle="t_1" depart="95.00" arrival="354.00" arrivalPos="83.20" duration="259.00" routeLength="551.75" timeLoss="83.98"/>
    </personinfo>
    <personinfo id="2" depart="234.00" type="DEFAULT_PEDTYPE" speedFactor="1.12" duration="292.00" waitingTime="169.00" timeLoss="36.33" traveltime="123.00">
        <ride waitingTime="169.00" vehicle="t_1" depart="403.00" arrival="526.00" arrivalPos="0.20" duration="123.00" routeLength="278.85" timeLoss="36.33"/>
    </personinfo>
    <personinfo id="3" depart="431.00" type="DEFAULT_PEDTYPE" speedFactor="0.90" duration="161.00" waitingTime="79.00" timeLoss="4.18" traveltime="82.00">
        <ride waitingTime="79.00" vehicle="t_0" depart="510.00" arrival="592.00" arrivalPos="0.20" duration="82.00" routeLength="177.98" timeLoss="4.18"/>
    </personinfo>
    <personinfo id="4" depart="454.00" type="DEFAULT_PEDTYPE" speedFactor="0.88" duration="193.00" waitingTime="107.00" timeLoss="6.63" traveltime="86.00">
        <ride waitingTime="107.00" vehicle="t_1" depart="561.00" arrival="647.00" arrivalPos="0.20" duration="86.00" routeLength="199.95" timeLoss="6.63"/>
    </personinfo>
    <personinfo id="5" depart="642.00" type="DEFAULT_PEDTYPE" speedFactor="1.10" duration="184.00" waitingTime="84.00" timeLoss="8.57" traveltime="100.00">
        <ride waitingTime="84.00" vehicle="t_0" depart="726.00" arrival="826.00" arrivalPos="0.20" duration="100.00" routeLength="318.70" timeLoss="8.57"/>
    </personinfo>
    <personinfo id="6" depart="839.00" type="DEFAULT_PEDTYPE" speedFactor="1.06" duration="171.00" waitingTime="23.00" timeLoss="7.83" traveltime="148.00">
        <ride waitingTime="23.00" vehicle="t_1" depart="862.00" arrival="1010.00" arrivalPos="83.20" duration="148.00" routeLength="338.63" timeLoss="7.83"/>
    </personinfo>
    <personinfo id="7" depart="919.00" type="DEFAULT_PEDTYPE" speedFactor="1.12" duration="141.00" waitingTime="42.00" timeLoss="7.14" traveltime="99.00">
        <ride waitingTime="42.00" vehicle="t_0" depart="961.00" arrival="1060.00" arrivalPos="78.65" duration="99.00" routeLength="275.64" timeLoss="7.14"/>
    </personinfo>
    <personinfo id="10" depart="991.00" type="DEFAULT_PEDTYPE" speedFactor="0.91" duration="120.00" waitingTime="80.00" timeLoss="7.08" traveltime="40.00">
        <ride waitingTime="80.00" vehicle="t_0" depart="1071.00" arrival="1111.00" arrivalPos="4.99" duration="40.00" routeLength="376.57" timeLoss="7.08"/>
    </personinfo>
    <personinfo id="8" depart="945.00" type="DEFAULT_PEDTYPE" speedFactor="1.18" duration="190.00" waitingTime="106.00" timeLoss="4.48" traveltime="84.00">
        <ride waitingTime="106.00" vehicle="t_1" depart="1051.00" arrival="1135.00" arrivalPos="83.20" duration="84.00" routeLength="175.73" timeLoss="4.48"/>
    </personinfo>
    <personinfo id="9" depart="968.00" type="DEFAULT_PEDTYPE" speedFactor="1.08" duration="288.00" waitingTime="144.00" timeLoss="51.12" traveltime="144.00">
        <ride waitingTime="144.00" vehicle="t_0" depart="1112.00" arrival="1256.00" arrivalPos="83.20" duration="144.00" routeLength="352.29" timeLoss="51.12"/>
    </personinfo>
    <personinfo id="11" depart="1068.00" type="DEFAULT_PEDTYPE" speedFactor="1.14" duration="292.00" waitingTime="138.00" timeLoss="46.88" traveltime="154.00">
        <ride waitingTime="138.00" vehicle="t_1" depart="1206.00" arrival="1360.00" arrivalPos="78.65" duration="154.00" routeLength="180.13" timeLoss="46.88"/>
    </personinfo>
    <personinfo id="12" depart="1266.00" type="DEFAULT_PEDTYPE" speedFactor="1.11" duration="231.00" waitingTime="145.00" timeLoss="4.74" traveltime="86.00">
        <ride waitingTime="145.00" vehicle="t_1" depart="1411.00" arrival="1497.00" arrivalPos="0.20" duration="86.00" routeLength="178.52" timeLoss="4.74"/>
    </personinfo>
    <personinfo id="14" depart="1507.00" type="DEFAULT_PEDTYPE" speedFactor="1.07" duration="143.00" waitingTime="47.00" timeLoss="5.24" traveltime="96.00">
        <ride waitingTime="47.00" vehicle="t_0" depart="1554.00" arrival="1650.00" arrivalPos="78.65" duration="96.00" routeLength="276.23" timeLoss="5.24"/>
    </personinfo>
    <personinfo id="13" depart="1291.00" type="DEFAULT_PEDTYPE" speedFactor="0.86" duration="361.00" waitingTime="256.00" timeLoss="6.65" traveltime="105.00">
        <ride waitingTime="256.00" vehicle="t_1" depart="1547.00" arrival="1652.00" arrivalPos="78.65" duration="105.00" routeLength="391.64" timeLoss="6.65"/>
    </personinfo>
    <personinfo id="15" depart="1533.00" type="DEFAULT_PEDTYPE" speedFactor="0.94" duration="270.00" waitingTime="138.00" timeLoss="21.63" traveltime="132.00">
        <ride waitingTime="138.00" vehicle="t_0" depart="1671.00" arrival="1803.00" arrivalPos="78.65" duration="132.00" routeLength="413.62" timeLoss="21.63"/>
    </personinfo>
    <personinfo id="16" depart="1559.00" type="DEFAULT_PEDTYPE" speedFactor="1.02" duration="272.00" waitingTime="140.00" timeLoss="39.92" traveltime="132.00">
        <ride waitingTime="140.00" vehicle="t_1" depart="1699.00" arrival="1831.00" arrivalPos="79.20" duration="132.00" routeLength="318.37" timeLoss="39.92"/>
    </personinfo>
    <personinfo id="17" depart="1586.00" type="DEFAULT_PEDTYPE" speedFactor="1.14" duration="345.00" waitingTime="100.00" timeLoss="57.56" traveltime="245.00">
        <ride waitingTime="100.00" vehicle="t_0" depart="1686.00" arrival="1931.00" arrivalPos="83.20" duration="245.00" routeLength="598.61" timeLoss="57.56"/>
    </personinfo>
    <personinfo id="19" depart="1736.00" type="DEFAULT_PEDTYPE" speedFactor="0.96" duration="284.00" waitingTime="161.00" timeLoss="24.09" traveltime="123.00">
        <ride waitingTime="161.00" vehicle="t_1" depart="1897.00" arrival="2020.00" arrivalPos="83.20" duration="123.00" routeLength="403.91" timeLoss="24.09"/>
    </personinfo>
    <personinfo id="18" depart="1663.00" type="DEFAULT_PEDTYPE" speedFactor="1.01" duration="383.00" waitingTime="55.00" timeLoss="53.14" traveltime="328.00">
        <ride waitingTime="55.00" vehicle="t_0" depart="1718.00" arrival="2046.00" arrivalPos="83.20" duration="328.00" routeLength="931.72" timeLoss="53.14"/>
    </personinfo>
    <personinfo id="20" depart="1953.00" type="DEFAULT_PEDTYPE" speedFactor="0.89" duration="225.00" waitingTime="134.00" timeLoss="5.07" traveltime="91.00">
        <ride waitingTime="134.00" vehicle="t_0" depart="2087.00" arrival="2178.00" arrivalPos="83.20" duration="91.00" routeLength="266.08" timeLoss="5.07"/>
    </personinfo>
    <personinfo id="21" depart="2159.00" type="DEFAULT_PEDTYPE" speedFactor="0.96" duration="213.00" waitingTime="54.00" timeLoss="51.20" traveltime="159.00">
        <ride waitingTime="54.00" vehicle="t_1" depart="2213.00" arrival="2372.00" arrivalPos="0.20" duration="159.00" routeLength="443.05" timeLoss="51.20"/>
    </personinfo>
    <personinfo id="22" depart="2182.00" type="DEFAULT_PEDTYPE" speedFactor="1.14" duration="358.00" waitingTime="67.00" timeLoss="56.13" traveltime="291.00">
        <ride waitingTime="67.00" vehicle="t_1" depart="2249.00" arrival="2540.00" arrivalPos="83.20" duration="291.00" routeLength="643.36" timeLoss="56.13"/>
    </personinfo>
    <personinfo id="23" depart="2390.00" type="DEFAULT_PEDTYPE" speedFactor="1.01" duration="316.00" waitingTime="183.00" timeLoss="12.34" traveltime="133.00">
        <ride waitingTime="183.00" vehicle="t_1" depart="2573.00" arrival="2706.00" arrivalPos="83.20" duration="133.00" routeLength="577.47" timeLoss="12.34"/>
    </personinfo>
    <personinfo id="25" depart="2496.00" type="DEFAULT_PEDTYPE" speedFactor="0.97" duration="236.00" waitingTime="65.00" timeLoss="83.84" traveltime="171.00">
        <ride waitingTime="65.00" vehicle="t_0" depart="2561.00" arrival="2732.00" arrivalPos="0.20" duration="171.00" routeLength="287.42" timeLoss="83.84"/>
    </personinfo>
    <personinfo id="24" depart="2470.00" type="DEFAULT_PEDTYPE" speedFactor="0.85" duration="360.00" waitingTime="151.00" timeLoss="10.55" traveltime="209.00">
        <ride waitingTime="151.00" vehicle="t_1" depart="2621.00" arrival="2830.00" arrivalPos="79.20" duration="209.00" routeLength="352.23" timeLoss="10.55"/>
    </personinfo>
    <personinfo id="26" depart="2568.00" type="DEFAULT_PEDTYPE" speedFactor="0.97" duration="413.00" waitingTime="274.00" timeLoss="40.26" traveltime="139.00">
        <ride waitingTime="274.00" vehicle="t_0" depart="2842.00" arrival="2981.00" arrivalPos="79.20" duration="139.00" routeLength="453.03" timeLoss="40.26"/>
    </personinfo>
    <personinfo id="27" depart="2760.00" type="DEFAULT_PEDTYPE" speedFactor="0.79" duration="346.00" waitingTime="173.00" timeLoss="74.06" traveltime="173.00">
        <ride waitingTime="173.00" vehicle="t_1" depart="2933.00" arrival="3106.00" arrivalPos="78.65" duration="173.00" routeLength="386.50" timeLoss="74.06"/>
    </personinfo>
    <personinfo id="28" depart="2841.00" type="DEFAULT_PEDTYPE" speedFactor="1.07" duration="289.00" waitingTime="171.00" timeLoss="11.74" traveltime="118.00">
        <ride waitingTime="171.00" vehicle="t_0" depart="3012.00" arrival="3130.00" arrivalPos="79.20" duration="118.00" routeLength="434.35" timeLoss="11.74"/>
    </personinfo>
    <personinfo id="29" depart="2865.00" type="DEFAULT_PEDTYPE" speedFactor="1.01" duration="370.00" waitingTime="147.00" timeLoss="35.08" traveltime="223.00">
        <ride waitingTime="147.00" vehicle="t_0" depart="3012.00" arrival="3235.00" arrivalPos="83.20" duration="223.00" routeLength="622.22" timeLoss="35.08"/>
    </personinfo>
    <personinfo id="32" depart="3175.00" type="DEFAULT_PEDTYPE" speedFactor="1.01" duration="187.00" waitingTime="25.00" timeLoss="65.83" traveltime="162.00">
        <ride waitingTime="25.00" vehicle="t_1" depart="3200.00" arrival="3362.00" arrivalPos="78.65" duration="162.00" routeLength="368.82" timeLoss="65.83"/>
    </personinfo>
    <personinfo id="30" depart="3067.00" type="DEFAULT_PEDTYPE" speedFactor="0.97" duration="343.00" waitingTime="188.00" timeLoss="24.08" traveltime="155.00">
        <ride waitingTime="188.00" vehicle="t_0" depart="3255.00" arrival="3410.00" arrivalPos="78.65" duration="155.00" routeLength="449.69" timeLoss="24.08"/>
    </personinfo>
    <personinfo id="34" depart="3270.00" type="DEFAULT_PEDTYPE" speedFactor="0.78" duration="237.00" waitingTime="121.00" timeLoss="21.57" traveltime="116.00">
        <ride waitingTime="121.00" vehicle="t_1" depart="3391.00" arrival="3507.00" arrivalPos="83.20" duration="116.00" routeLength="361.47" timeLoss="21.57"/>
    </personinfo>
    <personinfo id="35" depart="3346.00" type="DEFAULT_PEDTYPE" speedFactor="1.04" duration="293.00" waitingTime="182.00" timeLoss="25.07" traveltime="111.00">
        <ride waitingTime="182.00" vehicle="t_0" depart="3528.00" arrival="3639.00" arrivalPos="79.20" duration="111.00" routeLength="261.06" timeLoss="25.07"/>
    </personinfo>
    <personinfo id="33" depart="3244.00" type="DEFAULT_PEDTYPE" speedFactor="0.99" duration="432.00" waitingTime="284.00" timeLoss="44.75" traveltime="148.00">
        <ride waitingTime="284.00" vehicle="t_1" depart="3528.00" arrival="3676.00" arrivalPos="78.65" duration="148.00" routeLength="451.25" timeLoss="44.75"/>
    </personinfo>
    <personinfo id="31" depart="3148.00" type="DEFAULT_PEDTYPE" speedFactor="0.87" duration="646.00" waitingTime="334.00" timeLoss="109.21" traveltime="312.00">
        <ride waitingTime="334.00" vehicle="t_0" depart="3482.00" arrival="3794.00" arrivalPos="78.65" duration="312.00" routeLength="860.85" timeLoss="109.21"/>
    </personinfo>
    <personinfo id="36" depart="3566.00" type="DEFAULT_PEDTYPE" speedFactor="0.92" duration="301.00" waitingTime="174.00" timeLoss="28.42" traveltime="127.00">
        <ride waitingTime="174.00" vehicle="t_1" depart="3740.00" arrival="3867.00" arrivalPos="78.65" duration="127.00" routeLength="387.90" timeLoss="28.42"/>
    </personinfo>
    <personinfo id="38" depart="3965.00" type="DEFAULT_PEDTYPE" speedFactor="0.77" duration="203.00" waitingTime="69.00" timeLoss="47.80" traveltime="134.00">
        <ride waitingTime="69.00" vehicle="t_0" depart="4034.00" arrival="4168.00" arrivalPos="79.20" duration="134.00" routeLength="280.75" timeLoss="47.80"/>
    </personinfo>
    <personinfo id="37" depart="3780.00" type="DEFAULT_PEDTYPE" speedFactor="1.11" duration="400.00" waitingTime="214.00" timeLoss="47.99" traveltime="186.00">
        <ride waitingTime="214.00" vehicle="t_1" depart="3994.00" arrival="4180.00" arrivalPos="83.20" duration="186.00" routeLength="789.99" timeLoss="47.99"/>
    </personinfo>
    <personinfo id="39" depart="4044.00" type="DEFAULT_PEDTYPE" speedFactor="1.13" duration="261.00" waitingTime="154.00" timeLoss="20.42" traveltime="107.00">
        <ride waitingTime="154.00" vehicle="t_0" depart="4198.00" arrival="4305.00" arrivalPos="83.20" duration="107.00" routeLength="262.19" timeLoss="20.42"/>
    </personinfo>
    <personinfo id="40" depart="4118.00" type="DEFAULT_PEDTYPE" speedFactor="0.95" duration="302.00" waitingTime="137.00" timeLoss="19.15" traveltime="165.00">
        <ride waitingTime="137.00" vehicle="t_1" depart="4255.00" arrival="4420.00" arrivalPos="0.20" duration="165.00" routeLength="255.29" timeLoss="19.15"/>
    </personinfo>
    <personinfo id="43" depart="4438.00" type="DEFAULT_PEDTYPE" speedFactor="0.87" duration="184.00" waitingTime="59.00" timeLoss="41.57" traveltime="125.00">
        <ride waitingTime="59.00" vehicle="t_1" depart="4497.00" arrival="4622.00" arrivalPos="79.20" duration="125.00" routeLength="206.84" timeLoss="41.57"/>
    </personinfo>
    <personinfo id="44" depart="4461.00" type="DEFAULT_PEDTYPE" speedFactor="0.98" duration="203.00" waitingTime="47.00" timeLoss="52.42" traveltime="156.00">
        <ride waitingTime="47.00" vehicle="t_0" depart="4508.00" arrival="4664.00" arrivalPos="78.65" duration="156.00" routeLength="464.31" timeLoss="52.42"/>
    </personinfo>
    <personinfo id="41" depart="4333.00" type="DEFAULT_PEDTYPE" speedFactor="1.07" duration="427.00" waitingTime="152.00" timeLoss="97.33" traveltime="275.00">
        <ride waitingTime="152.00" vehicle="t_1" depart="4485.00" arrival="4760.00" arrivalPos="0.20" duration="275.00" routeLength="499.83" timeLoss="97.33"/>
    </personinfo>
    <personinfo id="42" depart="4358.00" type="DEFAULT_PEDTYPE" speedFactor="1.03" duration="532.00" waitingTime="114.00" timeLoss="141.87" traveltime="418.00">
        <ride waitingTime="114.00" vehicle="t_1" depart="4472.00" arrival="4890.00" arrivalPos="78.65" duration="418.00" routeLength="795.14" timeLoss="141.87"/>
    </personinfo>
    <personinfo id="45" depart="4680.00" type="DEFAULT_PEDTYPE" speedFactor="1.24" duration="389.00" waitingTime="232.00" timeLoss="48.21" traveltime="157.00">
        <ride waitingTime="232.00" vehicle="t_1" depart="4912.00" arrival="5069.00" arrivalPos="83.20" duration="157.00" routeLength="553.34" timeLoss="48.21"/>
    </personinfo>
    <personinfo id="46" depart="4872.00" type="DEFAULT_PEDTYPE" speedFactor="1.15" duration="268.00" waitingTime="87.00" timeLoss="6.54" traveltime="181.00">
        <ride waitingTime="87.00" vehicle="t_0" depart="4959.00" arrival="5140.00" arrivalPos="0.20" duration="181.00" routeLength="314.68" timeLoss="6.54"/>
    </personinfo>
    <personinfo id="47" depart="4953.00" type="DEFAULT_PEDTYPE" speedFactor="0.97" duration="352.00" waitingTime="196.00" timeLoss="62.35" traveltime="156.00">
        <ride waitingTime="196.00" vehicle="t_1" depart="5149.00" arrival="5305.00" arrivalPos="83.20" duration="156.00" routeLength="372.91" timeLoss="62.35"/>
    </personinfo>
    <personinfo id="50" depart="5075.00" type="DEFAULT_PEDTYPE" speedFactor="0.99" duration="388.00" waitingTime="186.00" timeLoss="74.72" traveltime="202.00">
        <ride waitingTime="186.00" vehicle="t_0" depart="5261.00" arrival="5463.00" arrivalPos="83.20" duration="202.00" routeLength="739.95" timeLoss="74.72"/>
    </personinfo>
    <personinfo id="53" depart="5149.00" type="DEFAULT_PEDTYPE" speedFactor="1.03" duration="341.00" waitingTime="259.00" timeLoss="3.14" traveltime="82.00">
        <ride waitingTime="259.00" vehicle="t_1" depart="5408.00" arrival="5490.00" arrivalPos="78.65" duration="82.00" routeLength="162.23" timeLoss="3.14"/>
    </personinfo>
    <personinfo id="54" depart="5337.00" type="DEFAULT_PEDTYPE" speedFactor="1.02" duration="273.00" waitingTime="169.00" timeLoss="3.44" traveltime="104.00">
        <ride waitingTime="169.00" vehicle="t_0" depart="5506.00" arrival="5610.00" arrivalPos="83.20" duration="104.00" routeLength="163.98" timeLoss="3.44"/>
    </personinfo>
    <personinfo id="52" depart="5122.00" type="DEFAULT_PEDTYPE" speedFactor="0.95" duration="540.00" waitingTime="419.00" timeLoss="27.05" traveltime="121.00">
        <ride waitingTime="419.00" vehicle="t_1" depart="5541.00" arrival="5662.00" arrivalPos="78.65" duration="121.00" routeLength="362.23" timeLoss="27.05"/>
    </personinfo>
    <personinfo id="49" depart="5047.00" type="DEFAULT_PEDTYPE" speedFactor="1.06" duration="703.00" waitingTime="315.00" timeLoss="38.07" traveltime="388.00">
        <ride waitingTime="315.00" vehicle="t_0" depart="5362.00" arrival="5750.00" arrivalPos="78.65" duration="388.00" routeLength="943.59" timeLoss="38.07"/>
    </personinfo>
    <personinfo id="51" depart="5098.00" type="DEFAULT_PEDTYPE" speedFactor="0.89" duration="667.00" waitingTime="576.00" timeLoss="3.56" traveltime="91.00">
        <ride waitingTime="576.00" vehicle="t_1" depart="5674.00" arrival="5765.00" arrivalPos="79.20" duration="91.00" routeLength="279.48" timeLoss="3.56"/>
    </personinfo>
    <personinfo id="48" depart="5024.00" type="DEFAULT_PEDTYPE" speedFactor="0.98" duration="906.00" waitingTime="214.00" timeLoss="159.13" traveltime="692.00">
        <ride waitingTime="214.00" vehicle="t_0" depart="5238.00" arrival="5930.00" arrivalPos="79.20" duration="692.00" routeLength="1665.24" timeLoss="159.13"/>
    </personinfo>
    <personinfo id="55" depart="5543.00" type="DEFAULT_PEDTYPE" speedFactor="0.87" duration="667.00" waitingTime="457.00" timeLoss="88.48" traveltime="210.00">
        <ride waitingTime="457.00" vehicle="t_0" depart="6000.00" arrival="6210.00" arrivalPos="78.65" duration="210.00" routeLength="652.14" timeLoss="88.48"/>
    </personinfo>
    <personinfo id="59" depart="6051.00" type="DEFAULT_PEDTYPE" speedFactor="0.97" duration="246.00" waitingTime="44.00" timeLoss="38.64" traveltime="202.00">
        <ride waitingTime="44.00" vehicle="t_1" depart="6095.00" arrival="6297.00" arrivalPos="83.20" duration="202.00" routeLength="1215.72" timeLoss="38.64"/>
    </personinfo>
    <personinfo id="58" depart="5869.00" type="DEFAULT_PEDTYPE" speedFactor="0.99" duration="435.00" waitingTime="175.00" timeLoss="115.03" traveltime="260.00">
        <ride waitingTime="175.00" vehicle="t_0" depart="6044.00" arrival="6304.00" arrivalPos="4.98" duration="260.00" routeLength="868.91" timeLoss="115.03"/>
    </personinfo>
    <personinfo id="60" depart="6120.00" type="DEFAULT_PEDTYPE" speedFactor="1.04" duration="260.00" waitingTime="50.00" timeLoss="28.98" traveltime="210.00">
        <ride waitingTime="50.00" vehicle="t_1" depart="6170.00" arrival="6380.00" arrivalPos="0.20" duration="210.00" routeLength="579.98" timeLoss="28.98"/>
    </personinfo>
    <personinfo id="56" depart="5612.00" type="DEFAULT_PEDTYPE" speedFactor="0.95" duration="819.00" waitingTime="652.00" timeLoss="34.63" traveltime="167.00">
        <ride waitingTime="652.00" vehicle="t_0" depart="6264.00" arrival="6431.00" arrivalPos="83.20" duration="167.00" routeLength="840.16" timeLoss="34.63"/>
    </personinfo>
    <personinfo id="57" depart="5680.00" type="DEFAULT_PEDTYPE" speedFactor="1.09" duration="918.00" waitingTime="625.00" timeLoss="83.93" traveltime="293.00">
        <ride waitingTime="625.00" vehicle="t_0" depart="6305.00" arrival="6598.00" arrivalPos="0.20" duration="293.00" routeLength="1043.19" timeLoss="83.93"/>
    </personinfo>
    <personinfo id="61" depart="6319.00" type="DEFAULT_PEDTYPE" speedFactor="0.83" duration="351.00" waitingTime="155.00" timeLoss="33.98" traveltime="196.00">
        <ride waitingTime="155.00" vehicle="t_1" depart="6474.00" arrival="6670.00" arrivalPos="83.20" duration="196.00" routeLength="457.26" timeLoss="33.98"/>
    </personinfo>
    <personinfo id="64" depart="6678.00" type="DEFAULT_PEDTYPE" speedFactor="0.96" duration="142.00" waitingTime="32.00" timeLoss="7.95" traveltime="110.00">
        <ride waitingTime="32.00" vehicle="t_0" depart="6710.00" arrival="6820.00" arrivalPos="79.20" duration="110.00" routeLength="376.16" timeLoss="7.95"/>
    </personinfo>
    <personinfo id="62" depart="6536.00" type="DEFAULT_PEDTYPE" speedFactor="0.91" duration="296.00" waitingTime="193.00" timeLoss="8.24" traveltime="103.00">
        <ride waitingTime="193.00" vehicle="t_1" depart="6729.00" arrival="6832.00" arrivalPos="83.20" duration="103.00" routeLength="350.22" timeLoss="8.24"/>
    </personinfo>
    <personinfo id="65" depart="6751.00" type="DEFAULT_PEDTYPE" speedFactor="1.13" duration="289.00" waitingTime="105.00" timeLoss="23.64" traveltime="184.00">
        <ride waitingTime="105.00" vehicle="t_0" depart="6856.00" arrival="7040.00" arrivalPos="79.20" duration="184.00" routeLength="305.40" timeLoss="23.64"/>
    </personinfo>
    <personinfo id="63" depart="6608.00" type="DEFAULT_PEDTYPE" speedFactor="1.10" duration="502.00" waitingTime="297.00" timeLoss="64.75" traveltime="205.00">
        <ride waitingTime="297.00" vehicle="t_1" depart="6905.00" arrival="7110.00" arrivalPos="78.65" duration="205.00" routeLength="452.13" timeLoss="64.75"/>
    </personinfo>
    <personinfo id="66" depart="6933.00" type="DEFAULT_PEDTYPE" speedFactor="0.94" duration="296.00" waitingTime="127.00" timeLoss="75.81" traveltime="169.00">
        <ride waitingTime="127.00" vehicle="t_0" depart="7060.00" arrival="7229.00" arrivalPos="78.65" duration="169.00" routeLength="342.28" timeLoss="75.81"/>
    </personinfo>
    <personinfo id="67" depart="6956.00" type="DEFAULT_PEDTYPE" speedFactor="1.11" duration="494.00" waitingTime="251.00" timeLoss="37.03" traveltime="243.00">
        <ride waitingTime="251.00" vehicle="t_1" depart="7207.00" arrival="7450.00" arrivalPos="79.20" duration="243.00" routeLength="246.32" timeLoss="37.03"/>
    </personinfo>
    <personinfo id="68" depart="6979.00" type="DEFAULT_PEDTYPE" speedFactor="0.84" duration="531.00" waitingTime="418.00" timeLoss="7.16" traveltime="113.00">
        <ride waitingTime="418.00" vehicle="t_0" depart="7397.00" arrival="7510.00" arrivalPos="79.20" duration="113.00" routeLength="376.27" timeLoss="7.16"/>
    </personinfo>
    <personinfo id="74" depart="7382.00" type="DEFAULT_PEDTYPE" speedFactor="0.92" duration="188.00" waitingTime="94.00" timeLoss="5.86" traveltime="94.00">
        <ride waitingTime="94.00" vehicle="t_1" depart="7476.00" arrival="7570.00" arrivalPos="78.65" duration="94.00" routeLength="256.11" timeLoss="5.86"/>
    </personinfo>
    <personinfo id="69" depart="7049.00" type="DEFAULT_PEDTYPE" speedFactor="0.90" duration="776.00" waitingTime="607.00" timeLoss="46.03" traveltime="169.00">
        <ride waitingTime="607.00" vehicle="t_1" depart="7656.00" arrival="7825.00" arrivalPos="78.65" duration="169.00" routeLength="636.80" timeLoss="46.03"/>
    </personinfo>
    <personinfo id="71" depart="7304.00" type="DEFAULT_PEDTYPE" speedFactor="0.94" duration="716.00" waitingTime="586.00" timeLoss="5.53" traveltime="130.00">
        <ride waitingTime="586.00" vehicle="t_1" depart="7890.00" arrival="8020.00" arrivalPos="83.20" duration="130.00" routeLength="199.37" timeLoss="5.53"/>
    </personinfo>
    <personinfo id="70" depart="7120.00" type="DEFAULT_PEDTYPE" speedFactor="1.10" duration="920.00" waitingTime="400.00" timeLoss="171.07" traveltime="520.00">
        <ride waitingTime="400.00" vehicle="t_0" depart="7520.00" arrival="8040.00" arrivalPos="83.20" duration="520.00" routeLength="1787.95" timeLoss="171.07"/>
    </personinfo>
    <personinfo id="75" depart="7449.00" type="DEFAULT_PEDTYPE" speedFactor="1.05" duration="780.00" waitingTime="127.00" timeLoss="207.24" traveltime="653.00">
        <ride waitingTime="127.00" vehicle="t_0" depart="7576.00" arrival="8229.00" arrivalPos="79.20" duration="653.00" routeLength="2179.48" timeLoss="207.24"/>
    </personinfo>
    <personinfo id="72" depart="7332.00" type="DEFAULT_PEDTYPE" speedFactor="0.94" duration="1066.00" waitingTime="389.00" timeLoss="165.54" traveltime="677.00">
        <ride waitingTime="389.00" vehicle="t_1" depart="7721.00" arrival="8398.00" arrivalPos="83.20" duration="677.00" routeLength="2020.62" timeLoss="165.54"/>
    </personinfo>
    <personinfo id="80" depart="7976.00" type="DEFAULT_PEDTYPE" speedFactor="1.00" duration="423.00" waitingTime="110.00" timeLoss="125.24" traveltime="313.00">
        <ride waitingTime="110.00" vehicle="t_0" depart="8086.00" arrival="8399.00" arrivalPos="79.20" duration="313.00" routeLength="738.64" timeLoss="125.24"/>
    </personinfo>
    <personinfo id="79" depart="7953.00" type="DEFAULT_PEDTYPE" speedFactor="0.87" duration="607.00" waitingTime="476.00" timeLoss="8.09" traveltime="131.00">
        <ride waitingTime="476.00" vehicle="t_1" depart="8429.00" arrival="8560.00" arrivalPos="78.65" duration="131.00" routeLength="255.36" timeLoss="8.09"/>
    </personinfo>
    <personinfo id="78" depart="7751.00" type="DEFAULT_PEDTYPE" speedFactor="1.10" duration="884.00" waitingTime="87.00" timeLoss="295.65" traveltime="797.00">
        <ride waitingTime="87.00" vehicle="t_0" depart="7838.00" arrival="8635.00" arrivalPos="83.20" duration="797.00" routeLength="2379.73" timeLoss="295.65"/>
    </personinfo>
    <personinfo id="83" depart="8210.00" type="DEFAULT_PEDTYPE" speedFactor="1.07" duration="551.00" waitingTime="55.00" timeLoss="152.11" traveltime="496.00">
        <ride waitingTime="55.00" vehicle="t_1" depart="8265.00" arrival="8761.00" arrivalPos="79.20" duration="496.00" routeLength="1211.71" timeLoss="152.11"/>
    </personinfo>
    <personinfo id="73" depart="7355.00" type="DEFAULT_PEDTYPE" speedFactor="1.06" duration="1505.00" waitingTime="255.00" timeLoss="394.21" traveltime="1250.00">
        <ride waitingTime="255.00" vehicle="t_0" depart="7610.00" arrival="8860.00" arrivalPos="83.20" duration="1250.00" routeLength="3725.11" timeLoss="394.21"/>
    </personinfo>
    <personinfo id="84" depart="8413.00" type="DEFAULT_PEDTYPE" speedFactor="1.14" duration="512.00" waitingTime="22.00" timeLoss="137.62" traveltime="490.00">
        <ride waitingTime="22.00" vehicle="t_1" depart="8435.00" arrival="8925.00" arrivalPos="78.65" duration="490.00" routeLength="1266.56" timeLoss="137.62"/>
    </personinfo>
    <personinfo id="85" depart="8491.00" type="DEFAULT_PEDTYPE" speedFactor="0.99" duration="507.00" waitingTime="281.00" timeLoss="32.79" traveltime="226.00">
        <ride waitingTime="281.00" vehicle="t_1" depart="8772.00" arrival="8998.00" arrivalPos="0.20" duration="226.00" routeLength="667.56" timeLoss="32.79"/>
    </personinfo>
    <personinfo id="82" depart="8185.00" type="DEFAULT_PEDTYPE" speedFactor="0.96" duration="814.00" waitingTime="613.00" timeLoss="28.56" traveltime="201.00">
        <ride waitingTime="613.00" vehicle="t_1" depart="8798.00" arrival="8999.00" arrivalPos="0.20" duration="201.00" routeLength="479.82" timeLoss="28.56"/>
    </personinfo>
    <personinfo id="76" depart="7521.00" type="DEFAULT_PEDTYPE" speedFactor="1.01" duration="1519.00" waitingTime="958.00" timeLoss="117.60" traveltime="561.00">
        <ride waitingTime="958.00" vehicle="t_0" depart="8479.00" arrival="9040.00" arrivalPos="83.20" duration="561.00" routeLength="1433.82" timeLoss="117.60"/>
    </personinfo>
    <personinfo id="77" depart="7727.00" type="DEFAULT_PEDTYPE" speedFactor="0.94" duration="1478.00" waitingTime="964.00" timeLoss="90.87" traveltime="514.00">
        <ride waitingTime="964.00" vehicle="t_0" depart="8691.00" arrival="9205.00" arrivalPos="83.20" duration="514.00" routeLength="1254.83" timeLoss="90.87"/>
    </personinfo>