<?xml version="1.0" encoding="UTF-8"?>

<!-- generated on 2026-03-30T13:59:47.906650+08:00 by Eclipse SUMO sumo 1.26.0
<sumoConfiguration xmlns:xsi="http://www.w3.org/2001/XMLSchema-instance" xsi:noNamespaceSchemaLocation="http://sumo.dlr.de/xsd/sumoConfiguration.xsd">

    <input>
        <net-file value="D:\FYP\DQNVersion1\SmallTestingMap\map.net.xml"/>
        <route-files value="D:\FYP\DQNVersion1\SmallTestingMap\map.rou.xml,D:\FYP\DQNVersion1\SmallTestingMap\persontrips_scale.rou.xml"/>
    </input>

    <output>
        <tripinfo-output value="D:\FYP\DQNVersion1\SmallTestingMap\tripinfos.xml"/>
        <stop-output value="D:\FYP\DQNVersion1\SmallTestingMap\stopinfos.xml"/>
        <statistic-output value="D:\FYP\DQNVersion1\SmallTestingMap\stats.xml"/>
    </output>

    <time>
        <step-length value="1.0"/>
    </time>

    <report>
        <verbose value="true"/>
        <duration-log.statistics value="true"/>
        <no-step-log value="true"/>
    </report>

    <taxi_device>
        <device.taxi.dispatch-algorithm value="traci"/>
    </taxi_device>

    <traci_server>
        <remote-port value="50716"/>
    </traci_server>

</sumoConfiguration>
-->

<tripinfos xmlns:xsi="http://www.w3.org/2001/XMLSchema-instance" xsi:noNamespaceSchemaLocation="http://sumo.dlr.de/xsd/tripinfo_file.xsd">
    <personinfo id="0" depart="0.00" type="DEFAULT_PEDTYPE" speedFactor="1.01" duration="150.00" waitingTime="61.00" timeLoss="6.69" traveltime="89.00">
        <ride waitingTime="61.00" vehicle="t_1" depart="61.00" arrival="150.00" arrivalPos="0.20" duration="89.00" routeLength="213.44" timeLoss="6.69"/>
    </personinfo>
    <personinfo id="1" depart="24.00" type="DEFAULT_PEDTYPE" speedFactor="1.08" duration="148.00" waitingTime="33.00" timeLoss="10.16" traveltime="115.00">
        <ride waitingTime="33.00" vehicle="t_0" depart="57.00" arrival="172.00" arrivalPos="83.20" duration="115.00" routeLength="551.75" timeLoss="10.16"/>
    </personinfo>
    <personinfo id="2" depart="234.00" type="DEFAULT_PEDTYPE" speedFactor="1.12" duration="202.00" waitingTime="76.00" timeLoss="41.51" traveltime="126.00">
        <ride waitingTime="76.00" vehicle="t_0" depart="310.00" arrival="436.00" arrivalPos="0.20" duration="126.00" routeLength="278.79" timeLoss="41.51"/>
    </personinfo>
    <personinfo id="4" depart="454.00" type="DEFAULT_PEDTYPE" speedFactor="0.88" duration="94.00" waitingTime="9.00" timeLoss="5.79" traveltime="85.00">
        <ride waitingTime="9.00" vehicle="t_1" depart="463.00" arrival="548.00" arrivalPos="0.20" duration="85.00" routeLength="199.94" timeLoss="5.79"/>
    </personinfo>
    <personinfo id="3" depart="431.00" type="DEFAULT_PEDTYPE" speedFactor="0.90" duration="163.00" waitingTime="81.00" timeLoss="3.76" traveltime="82.00">
        <ride waitingTime="81.00" vehicle="t_0" depart="512.00" arrival="594.00" arrivalPos="0.20" duration="82.00" routeLength="178.01" timeLoss="3.76"/>
    </personinfo>
    <personinfo id="5" depart="642.00" type="DEFAULT_PEDTYPE" speedFactor="0.91" duration="182.00" waitingTime="84.00" timeLoss="7.32" traveltime="98.00">
        <ride waitingTime="84.00" vehicle="t_0" depart="726.00" arrival="824.00" arrivalPos="0.20" duration="98.00" routeLength="318.71" timeLoss="7.32"/>
    </personinfo>
    <personinfo id="7" depart="919.00" type="DEFAULT_PEDTYPE" speedFactor="0.96" duration="141.00" waitingTime="41.00" timeLoss="9.02" traveltime="100.00">
        <ride waitingTime="41.00" vehicle="t_0" depart="960.00" arrival="1060.00" arrivalPos="78.65" duration="100.00" routeLength="275.65" timeLoss="9.02"/>
    </personinfo>
    <personinfo id="8" depart="945.00" type="DEFAULT_PEDTYPE" speedFactor="0.93" duration="185.00" waitingTime="76.00" timeLoss="10.47" traveltime="109.00">
        <ride waitingTime="76.00" vehicle="t_1" depart="1021.00" arrival="1130.00" arrivalPos="83.20" duration="109.00" routeLength="175.70" timeLoss="10.47"/>
    </personinfo>
    <personinfo id="9" depart="968.00" type="DEFAULT_PEDTYPE" speedFactor="0.87" duration="285.00" waitingTime="165.00" timeLoss="28.00" traveltime="120.00">
        <ride waitingTime="165.00" vehicle="t_0" depart="1133.00" arrival="1253.00" arrivalPos="83.20" duration="120.00" routeLength="352.21" timeLoss="28.00"/>
    </personinfo>
    <personinfo id="6" depart="839.00" type="DEFAULT_PEDTYPE" speedFactor="1.04" duration="451.00" waitingTime="23.00" timeLoss="112.99" traveltime="428.00">
        <ride waitingTime="23.00" vehicle="t_1" depart="862.00" arrival="1290.00" arrivalPos="83.20" duration="428.00" routeLength="1295.77" timeLoss="112.99"/>
    </personinfo>
    <personinfo id="11" depart="1068.00" type="DEFAULT_PEDTYPE" speedFactor="1.01" duration="358.00" waitingTime="257.00" timeLoss="19.83" traveltime="101.00">
        <ride waitingTime="257.00" vehicle="t_1" depart="1325.00" arrival="1426.00" arrivalPos="78.65" duration="101.00" routeLength="180.14" timeLoss="19.83"/>
    </personinfo>
    <personinfo id="10" depart="991.00" type="DEFAULT_PEDTYPE" speedFactor="1.10" duration="452.00" waitingTime="311.00" timeLoss="42.43" traveltime="141.00">
        <ride waitingTime="311.00" vehicle="t_0" depart="1302.00" arrival="1443.00" arrivalPos="79.20" duration="141.00" routeLength="450.80" timeLoss="42.43"/>
    </personinfo>
    <personinfo id="12" depart="1266.00" type="DEFAULT_PEDTYPE" speedFactor="0.90" duration="295.00" waitingTime="261.00" timeLoss="5.72" traveltime="34.00">
        <ride waitingTime="261.00" vehicle="t_0" depart="1527.00" arrival="1561.00" arrivalPos="0.20" duration="34.00" routeLength="178.56" timeLoss="5.72"/>
    </personinfo>
    <personinfo id="15" depart="1533.00" type="DEFAULT_PEDTYPE" speedFactor="1.31" duration="158.00" waitingTime="53.00" timeLoss="9.53" traveltime="105.00">
        <ride waitingTime="53.00" vehicle="t_0" depart="1586.00" arrival="1691.00" arrivalPos="78.65" duration="105.00" routeLength="375.68" timeLoss="9.53"/>
    </personinfo>
    <personinfo id="14" depart="1507.00" type="DEFAULT_PEDTYPE" speedFactor="1.12" duration="223.00" waitingTime="94.00" timeLoss="14.95" traveltime="129.00">
        <ride waitingTime="94.00" vehicle="t_1" depart="1601.00" arrival="1730.00" arrivalPos="78.65" duration="129.00" routeLength="276.25" timeLoss="14.95"/>
    </personinfo>
    <personinfo id="16" depart="1559.00" type="DEFAULT_PEDTYPE" speedFactor="1.03" duration="269.00" waitingTime="11.00" timeLoss="68.68" traveltime="258.00">
        <ride waitingTime="11.00" vehicle="t_0" depart="1570.00" arrival="1828.00" arrivalPos="79.20" duration="258.00" routeLength="671.64" timeLoss="68.68"/>
    </personinfo>
    <personinfo id="13" depart="1291.00" type="DEFAULT_PEDTYPE" speedFactor="0.99" duration="595.00" waitingTime="210.00" timeLoss="105.99" traveltime="385.00">
        <ride waitingTime="210.00" vehicle="t_1" depart="1501.00" arrival="1886.00" arrivalPos="78.65" duration="385.00" routeLength="1357.63" timeLoss="105.99"/>
    </personinfo>
    <personinfo id="17" depart="1586.00" type="DEFAULT_PEDTYPE" speedFactor="0.95" duration="390.00" waitingTime="264.00" timeLoss="33.80" traveltime="126.00">
        <ride waitingTime="264.00" vehicle="t_0" depart="1850.00" arrival="1976.00" arrivalPos="83.20" duration="126.00" routeLength="361.47" timeLoss="33.80"/>
    </personinfo>
    <personinfo id="18" depart="1663.00" type="DEFAULT_PEDTYPE" speedFactor="1.01" duration="357.00" waitingTime="99.00" timeLoss="77.48" traveltime="258.00">
        <ride waitingTime="99.00" vehicle="t_1" depart="1762.00" arrival="2020.00" arrivalPos="83.20" duration="258.00" routeLength="565.89" timeLoss="77.48"/>
    </personinfo>
    <personinfo id="20" depart="1953.00" type="DEFAULT_PEDTYPE" speedFactor="0.91" duration="228.00" waitingTime="135.00" timeLoss="5.70" traveltime="93.00">
        <ride waitingTime="135.00" vehicle="t_1" depart="2088.00" arrival="2181.00" arrivalPos="83.20" duration="93.00" routeLength="266.09" timeLoss="5.70"/>
    </personinfo>
    <personinfo id="21" depart="2159.00" type="DEFAULT_PEDTYPE" speedFactor="0.94" duration="137.00" waitingTime="38.00" timeLoss="9.69" traveltime="99.00">
        <ride waitingTime="38.00" vehicle="t_0" depart="2197.00" arrival="2296.00" arrivalPos="0.20" duration="99.00" routeLength="299.90" timeLoss="9.69"/>
    </personinfo>
    <personinfo id="19" depart="1736.00" type="DEFAULT_PEDTYPE" speedFactor="0.99" duration="592.00" waitingTime="26.00" timeLoss="185.03" traveltime="566.00">
        <ride waitingTime="26.00" vehicle="t_1" depart="1762.00" arrival="2328.00" arrivalPos="83.20" duration="566.00" routeLength="1322.32" timeLoss="185.03"/>
    </personinfo>
    <personinfo id="22" depart="2182.00" type="DEFAULT_PEDTYPE" speedFactor="0.96" duration="358.00" waitingTime="141.00" timeLoss="89.79" traveltime="217.00">
        <ride waitingTime="141.00" vehicle="t_0" depart="2323.00" arrival="2540.00" arrivalPos="83.20" duration="217.00" routeLength="476.06" timeLoss="89.79"/>
    </personinfo>
    <personinfo id="23" depart="2390.00" type="DEFAULT_PEDTYPE" speedFactor="1.12" duration="240.00" waitingTime="58.00" timeLoss="44.51" traveltime="182.00">
        <ride waitingTime="58.00" vehicle="t_1" depart="2448.00" arrival="2630.00" arrivalPos="83.20" duration="182.00" routeLength="577.47" timeLoss="44.51"/>
    </personinfo>
    <personinfo id="24" depart="2470.00" type="DEFAULT_PEDTYPE" speedFactor="1.08" duration="222.00" waitingTime="122.00" timeLoss="8.02" traveltime="100.00">
        <ride waitingTime="122.00" vehicle="t_0" depart="2592.00" arrival="2692.00" arrivalPos="79.20" duration="100.00" routeLength="352.29" timeLoss="8.02"/>
    </personinfo>
    <personinfo id="25" depart="2496.00" type="DEFAULT_PEDTYPE" speedFactor="1.12" duration="326.00" waitingTime="221.00" timeLoss="16.52" traveltime="105.00">
        <ride waitingTime="221.00" vehicle="t_1" depart="2717.00" arrival="2822.00" arrivalPos="0.20" duration="105.00" routeLength="287.43" timeLoss="16.52"/>
    </personinfo>
    <personinfo id="27" depart="2760.00" type="DEFAULT_PEDTYPE" speedFactor="1.08" duration="254.00" waitingTime="82.00" timeLoss="75.49" traveltime="172.00">
        <ride waitingTime="82.00" vehicle="t_0" depart="2842.00" arrival="3014.00" arrivalPos="78.65" duration="172.00" routeLength="386.48" timeLoss="75.49"/>
    </personinfo>
    <personinfo id="26" depart="2568.00" type="DEFAULT_PEDTYPE" speedFactor="0.94" duration="509.00" waitingTime="363.00" timeLoss="42.05" traveltime="146.00">
        <ride waitingTime="363.00" vehicle="t_1" depart="2931.00" arrival="3077.00" arrivalPos="79.20" duration="146.00" routeLength="453.10" timeLoss="42.05"/>
    </personinfo>
    <personinfo id="28" depart="2841.00" type="DEFAULT_PEDTYPE" speedFactor="0.97" duration="365.00" waitingTime="225.00" timeLoss="39.84" traveltime="140.00">
        <ride waitingTime="225.00" vehicle="t_0" depart="3066.00" arrival="3206.00" arrivalPos="79.20" duration="140.00" routeLength="434.37" timeLoss="39.84"/>
    </personinfo>
    <personinfo id="29" depart="2865.00" type="DEFAULT_PEDTYPE" speedFactor="1.12" duration="375.00" waitingTime="244.00" timeLoss="22.33" traveltime="131.00">
        <ride waitingTime="244.00" vehicle="t_1" depart="3109.00" arrival="3240.00" arrivalPos="83.20" duration="131.00" routeLength="476.87" timeLoss="22.33"/>
    </personinfo>
    <personinfo id="30" depart="3067.00" type="DEFAULT_PEDTYPE" speedFactor="0.95" duration="343.00" waitingTime="224.00" timeLoss="8.79" traveltime="119.00">
        <ride waitingTime="224.00" vehicle="t_0" depart="3291.00" arrival="3410.00" arrivalPos="78.65" duration="119.00" routeLength="449.64" timeLoss="8.79"/>
    </personinfo>
    <personinfo id="31" depart="3148.00" type="DEFAULT_PEDTYPE" speedFactor="0.96" duration="294.00" waitingTime="200.00" timeLoss="6.35" traveltime="94.00">
        <ride waitingTime="200.00" vehicle="t_1" depart="3348.00" arrival="3442.00" arrivalPos="78.65" duration="94.00" routeLength="264.85" timeLoss="6.35"/>
    </personinfo>
    <personinfo id="34" depart="3270.00" type="DEFAULT_PEDTYPE" speedFactor="0.99" duration="255.00" waitingTime="151.00" timeLoss="80.18" traveltime="104.00">
        <ride waitingTime="151.00" vehicle="t_0" depart="3421.00" arrival="3525.00" arrivalPos="5.00" duration="104.00" routeLength="283.24" timeLoss="80.18"/>
    </personinfo>
    <personinfo id="32" depart="3175.00" type="DEFAULT_PEDTYPE" speedFactor="0.92" duration="455.00" waitingTime="289.00" timeLoss="70.65" traveltime="166.00">
        <ride waitingTime="289.00" vehicle="t_1" depart="3464.00" arrival="3630.00" arrivalPos="78.65" duration="166.00" routeLength="368.83" timeLoss="70.65"/>
    </personinfo>
    <personinfo id="33" depart="3244.00" type="DEFAULT_PEDTYPE" speedFactor="0.93" duration="432.00" waitingTime="282.00" timeLoss="47.86" traveltime="150.00">
        <ride waitingTime="282.00" vehicle="t_0" depart="3526.00" arrival="3676.00" arrivalPos="78.65" duration="150.00" routeLength="451.23" timeLoss="47.86"/>
    </personinfo>
    <personinfo id="36" depart="3566.00" type="DEFAULT_PEDTYPE" speedFactor="0.95" duration="284.00" waitingTime="133.00" timeLoss="9.41" traveltime="151.00">
        <ride waitingTime="133.00" vehicle="t_1" depart="3699.00" arrival="3850.00" arrivalPos="78.65" duration="151.00" routeLength="387.88" timeLoss="9.41"/>
    </personinfo>
    <personinfo id="35" depart="3346.00" type="DEFAULT_PEDTYPE" speedFactor="0.99" duration="561.00" waitingTime="442.00" timeLoss="33.61" traveltime="119.00">
        <ride waitingTime="442.00" vehicle="t_0" depart="3788.00" arrival="3907.00" arrivalPos="79.20" duration="119.00" routeLength="261.06" timeLoss="33.61"/>
    </personinfo>
    <personinfo id="37" depart="3780.00" type="DEFAULT_PEDTYPE" speedFactor="1.00" duration="330.00" waitingTime="124.00" timeLoss="48.18" traveltime="206.00">
        <ride waitingTime="124.00" vehicle="t_1" depart="3904.00" arrival="4110.00" arrivalPos="83.20" duration="206.00" routeLength="790.01" timeLoss="48.18"/>
    </personinfo>
    <personinfo id="38" depart="3965.00" type="DEFAULT_PEDTYPE" speedFactor="1.17" duration="215.00" waitingTime="42.00" timeLoss="74.60" traveltime="173.00">
        <ride waitingTime="42.00" vehicle="t_0" depart="4007.00" arrival="4180.00" arrivalPos="79.20" duration="173.00" routeLength="280.67" timeLoss="74.60"/>
    </personinfo>
    <personinfo id="39" depart="4044.00" type="DEFAULT_PEDTYPE" speedFactor="1.09" duration="261.00" waitingTime="138.00" timeLoss="35.13" traveltime="123.00">
        <ride waitingTime="138.00" vehicle="t_1" depart="4182.00" arrival="4305.00" arrivalPos="83.20" duration="123.00" routeLength="262.18" timeLoss="35.13"/>
    </personinfo>
    <personinfo id="40" depart="4118.00" type="DEFAULT_PEDTYPE" speedFactor="0.97" duration="302.00" waitingTime="166.00" timeLoss="7.23" traveltime="136.00">
        <ride waitingTime="166.00" vehicle="t_0" depart="4284.00" arrival="4420.00" arrivalPos="0.20" duration="136.00" routeLength="255.27" timeLoss="7.23"/>
    </personinfo>
    <personinfo id="41" depart="4333.00" type="DEFAULT_PEDTYPE" speedFactor="1.10" duration="277.00" waitingTime="176.00" timeLoss="9.29" traveltime="101.00">
        <ride waitingTime="176.00" vehicle="t_1" depart="4509.00" arrival="4610.00" arrivalPos="0.20" duration="101.00" routeLength="290.23" timeLoss="9.29"/>
    </personinfo>
    <personinfo id="42" depart="4358.00" type="DEFAULT_PEDTYPE" speedFactor="1.00" duration="307.00" waitingTime="112.00" timeLoss="86.91" traveltime="195.00">
        <ride waitingTime="112.00" vehicle="t_0" depart="4470.00" arrival="4665.00" arrivalPos="78.65" duration="195.00" routeLength="564.44" timeLoss="86.91"/>
    </personinfo>
    <personinfo id="43" depart="4438.00" type="DEFAULT_PEDTYPE" speedFactor="0.96" duration="312.00" waitingTime="84.00" timeLoss="13.53" traveltime="228.00">
        <ride waitingTime="84.00" vehicle="t_1" depart="4522.00" arrival="4750.00" arrivalPos="79.20" duration="228.00" routeLength="406.39" timeLoss="13.53"/>
    </personinfo>
    <personinfo id="44" depart="4461.00" type="DEFAULT_PEDTYPE" speedFactor="1.02" duration="405.00" waitingTime="270.00" timeLoss="31.80" traveltime="135.00">
        <ride waitingTime="270.00" vehicle="t_0" depart="4731.00" arrival="4866.00" arrivalPos="78.65" duration="135.00" routeLength="464.36" timeLoss="31.80"/>
    </personinfo>
    <personinfo id="47" depart="4953.00" type="DEFAULT_PEDTYPE" speedFactor="1.00" duration="174.00" waitingTime="45.00" timeLoss="32.88" traveltime="129.00">
        <ride waitingTime="45.00" vehicle="t_1" depart="4998.00" arrival="5127.00" arrivalPos="83.20" duration="129.00" routeLength="372.92" timeLoss="32.88"/>
    </personinfo>
    <personinfo id="45" depart="4680.00" type="DEFAULT_PEDTYPE" speedFactor="0.85" duration="525.00" waitingTime="107.00" timeLoss="125.69" traveltime="418.00">
        <ride waitingTime="107.00" vehicle="t_1" depart="4787.00" arrival="5205.00" arrivalPos="83.20" duration="418.00" routeLength="1341.52" timeLoss="125.69"/>
    </personinfo>
    <personinfo id="46" depart="4872.00" type="DEFAULT_PEDTYPE" speedFactor="1.01" duration="338.00" waitingTime="86.00" timeLoss="8.32" traveltime="252.00">
        <ride waitingTime="86.00" vehicle="t_0" depart="4958.00" arrival="5210.00" arrivalPos="0.20" duration="252.00" routeLength="314.64" timeLoss="8.32"/>
    </personinfo>
    <personinfo id="49" depart="5047.00" type="DEFAULT_PEDTYPE" speedFactor="1.03" duration="353.00" waitingTime="189.00" timeLoss="7.70" traveltime="164.00">
        <ride waitingTime="189.00" vehicle="t_1" depart="5236.00" arrival="5400.00" arrivalPos="78.65" duration="164.00" routeLength="376.43" timeLoss="7.70"/>
    </personinfo>
    <personinfo id="48" depart="5024.00" type="DEFAULT_PEDTYPE" speedFactor="0.98" duration="408.00" waitingTime="302.00" timeLoss="12.28" traveltime="106.00">
        <ride waitingTime="302.00" vehicle="t_0" depart="5326.00" arrival="5432.00" arrivalPos="79.20" duration="106.00" routeLength="340.09" timeLoss="12.28"/>
    </personinfo>
    <personinfo id="54" depart="5337.00" type="DEFAULT_PEDTYPE" speedFactor="1.19" duration="273.00" waitingTime="162.00" timeLoss="2.68" traveltime="111.00">
        <ride waitingTime="162.00" vehicle="t_1" depart="5499.00" arrival="5610.00" arrivalPos="83.20" duration="111.00" routeLength="164.06" timeLoss="2.68"/>
    </personinfo>
    <personinfo id="50" depart="5075.00" type="DEFAULT_PEDTYPE" speedFactor="1.08" duration="536.00" waitingTime="395.00" timeLoss="47.70" traveltime="141.00">
        <ride waitingTime="395.00" vehicle="t_0" depart="5470.00" arrival="5611.00" arrivalPos="83.20" duration="141.00" routeLength="363.60" timeLoss="47.70"/>
    </personinfo>
    <personinfo id="55" depart="5543.00" type="DEFAULT_PEDTYPE" speedFactor="0.92" duration="216.00" waitingTime="87.00" timeLoss="39.60" traveltime="129.00">
        <ride waitingTime="87.00" vehicle="t_1" depart="5630.00" arrival="5759.00" arrivalPos="78.65" duration="129.00" routeLength="299.48" timeLoss="39.60"/>
    </personinfo>
    <personinfo id="51" depart="5098.00" type="DEFAULT_PEDTYPE" speedFactor="1.17" duration="738.00" waitingTime="625.00" timeLoss="24.97" traveltime="113.00">
        <ride waitingTime="625.00" vehicle="t_0" depart="5723.00" arrival="5836.00" arrivalPos="79.20" duration="113.00" routeLength="279.47" timeLoss="24.97"/>
    </personinfo>
    <personinfo id="56" depart="5612.00" type="DEFAULT_PEDTYPE" speedFactor="0.92" duration="345.00" waitingTime="200.00" timeLoss="28.72" traveltime="145.00">
        <ride waitingTime="200.00" vehicle="t_1" depart="5812.00" arrival="5957.00" arrivalPos="83.20" duration="145.00" routeLength="688.72" timeLoss="28.72"/>
    </personinfo>
    <personinfo id="52" depart="5122.00" type="DEFAULT_PEDTYPE" speedFactor="1.08" duration="926.00" waitingTime="824.00" timeLoss="7.97" traveltime="102.00">
        <ride waitingTime="824.00" vehicle="t_0" depart="5946.00" arrival="6048.00" arrivalPos="78.65" duration="102.00" routeLength="362.25" timeLoss="7.97"/>
    </personinfo>
    <personinfo id="58" depart="5869.00" type="DEFAULT_PEDTYPE" speedFactor="0.87" duration="264.00" waitingTime="122.00" timeLoss="34.56" traveltime="142.00">
        <ride waitingTime="122.00" vehicle="t_1" depart="5991.00" arrival="6133.00" arrivalPos="83.20" duration="142.00" routeLength="555.68" timeLoss="34.56"/>
    </personinfo>
    <personinfo id="57" depart="5680.00" type="DEFAULT_PEDTYPE" speedFactor="1.00" duration="471.00" waitingTime="242.00" timeLoss="74.10" traveltime="229.00">
        <ride waitingTime="242.00" vehicle="t_0" depart="5922.00" arrival="6151.00" arrivalPos="0.20" duration="229.00" routeLength="865.83" timeLoss="74.10"/>
    </personinfo>
    <personinfo id="53" depart="5149.00" type="DEFAULT_PEDTYPE" speedFactor="1.05" duration="1088.00" waitingTime="979.00" timeLoss="7.37" traveltime="109.00">
        <ride waitingTime="979.00" vehicle="t_0" depart="6128.00" arrival="6237.00" arrivalPos="78.65" duration="109.00" routeLength="210.93" timeLoss="7.37"/>
    </personinfo>
    <personinfo id="59" depart="6051.00" type="DEFAULT_PEDTYPE" speedFactor="0.98" duration="243.00" waitingTime="113.00" timeLoss="29.42" traveltime="130.00">
        <ride waitingTime="113.00" vehicle="t_1" depart="6164.00" arrival="6294.00" arrivalPos="83.20" duration="130.00" routeLength="461.43" timeLoss="29.42"/>
    </personinfo>
    <personinfo id="60" depart="6120.00" type="DEFAULT_PEDTYPE" speedFactor="1.14" duration="257.00" waitingTime="40.00" timeLoss="55.35" traveltime="217.00">
        <ride waitingTime="40.00" vehicle="t_0" depart="6160.00" arrival="6377.00" arrivalPos="0.20" duration="217.00" routeLength="375.96" timeLoss="55.35"/>
    </personinfo>
    <tripinfo id="t_0" depart="0.00" departLane="A3A2_0" departPos="5.10" departSpeed="0.00" departDelay="0.00" arrival="6379.00" arrivalLane="E16_0" arrivalPos="0.20" arrivalSpeed="1.75" duration="6379.00" routeLength="17628.69" waitingTime="1556.00" waitingCount="80" stopTime="2662.00" timeLoss="2055.97" rerouteNo="175" devices="tripinfo_t_0 routing_t_0 taxi_t_0 person_t_0" vType="myTaxi" speedFactor="1.03" vaporized="">
        <taxi customers="32" occupiedDistance="11116.19" occupiedTime="2209.00"/>
    </tripinfo>
    <personinfo id="61" depart="6319.00" type="DEFAULT_PEDTYPE" speedFactor="1.05" duration="201.00" waitingTime="88.00" timeLoss="9.30" traveltime="113.00">
        <ride waitingTime="88.00" vehicle="t_1" depart="6407.00" arrival="6520.00" arrivalPos="83.20" duration="113.00" routeLength="457.21" timeLoss="9.30"/>
    </personinfo>
    <personinfo id="62" depart="6536.00" type="DEFAULT_PEDTYPE" speedFactor="0.90" duration="204.00" waitingTime="43.00" timeLoss="36.56" traveltime="161.00">
        <ride waitingTime="43.00" vehicle="t_1" depart="6579.00" arrival="6740.00" arrivalPos="83.20" duration="161.00" routeLength="350.29" timeLoss="36.56"/>
    </personinfo>
    <personinfo id="63" depart="6608.00" type="DEFAULT_PEDTYPE" speedFactor="1.04" duration="432.00" waitingTime="208.00" timeLoss="27.64" traveltime="224.00">
        <ride waitingTime="208.00" vehicle="t_1" depart="6816.00" arrival="7040.00" arrivalPos="78.65" duration="224.00" routeLength="471.71" timeLoss="27.64"/>
    </personinfo>
    <personinfo id="65" depart="6751.00" type="DEFAULT_PEDTYPE" speedFactor="0.92" duration="477.00" waitingTime="105.00" timeLoss="98.97" traveltime="372.00">
        <ride waitingTime="105.00" vehicle="t_1" depart="6856.00" arrival="7228.00" arrivalPos="79.20" duration="372.00" routeLength="667.24" timeLoss="98.97"/>
    </personinfo>
    <personinfo id="64" depart="6678.00" type="DEFAULT_PEDTYPE" speedFactor="0.96" duration="832.00" waitingTime="560.00" timeLoss="7.44" traveltime="272.00">
        <ride waitingTime="560.00" vehicle="t_1" depart="7238.00" arrival="7510.00" arrivalPos="79.20" duration="272.00" routeLength="376.23" timeLoss="7.44"/>
    </personinfo>
    <personinfo id="66" depart="6933.00" type="DEFAULT_PEDTYPE" speedFactor="1.01" duration="838.00" waitingTime="700.00" timeLoss="41.49" traveltime="138.00">
        <ride waitingTime="700.00" vehicle="t_1" depart="7633.00" arrival="7771.00" arrivalPos="78.65" duration="138.00" routeLength="342.29" timeLoss="41.49"/>
    </personinfo>
</tripinfos>
