<?xml version="1.0" encoding="UTF-8"?>

<!-- generated on 2026-03-28T18:40:36.580358+08:00 by Eclipse SUMO sumo 1.26.0
<sumoConfiguration xmlns:xsi="http://www.w3.org/2001/XMLSchema-instance" xsi:noNamespaceSchemaLocation="http://sumo.dlr.de/xsd/sumoConfiguration.xsd">

    <input>
        <net-file value="D:\FYP\DQNVersion1\SmallTestingMap\map.net.xml"/>
        <route-files value="D:\FYP\DQNVersion1\SmallTestingMap\map.rou.xml,D:\FYP\DQNVersion1\SmallTestingMap\persontrips_scale.rou.xml"/>
    </input>

    <output>
        <tripinfo-output value="D:\FYP\DQNVersion1\SmallTestingMap\tripinfos.xml"/>
        <stop-output value="D:\FYP\DQNVersion1\SmallTestingMap\stopinfos.xml"/>
        <statistic-output value="D:\FYP\DQNVersion1\SmallTestingMap\stats.xml"/>
    </output>

    <time>
        <step-length value="1.0"/>
    </time>

    <report>
        <verbose value="true"/>
        <duration-log.statistics value="true"/>
        <no-step-log value="true"/>
    </report>

    <taxi_device>
        <device.taxi.dispatch-algorithm value="traci"/>
    </taxi_device>

    <traci_server>
        <remote-port value="59999"/>
    </traci_server>

</sumoConfiguration>
-->

<tripinfos xmlns:xsi="http://www.w3.org/2001/XMLSchema-instance" xsi:noNamespaceSchemaLocation="http://sumo.dlr.de/xsd/tripinfo_file.xsd">
    <personinfo id="0" depart="0.00" type="DEFAULT_PEDTYPE" speedFactor="1.01" duration="155.00" waitingTime="66.00" timeLoss="7.17" traveltime="89.00">
        <ride waitingTime="66.00" vehicle="t_0" depart="66.00" arrival="155.00" arrivalPos="0.20" duration="89.00" routeLength="213.44" timeLoss="7.17"/>
    </personinfo>
    <personinfo id="1" depart="24.00" type="DEFAULT_PEDTYPE" speedFactor="1.08" duration="328.00" waitingTime="155.00" timeLoss="68.14" traveltime="173.00">
        <ride waitingTime="155.00" vehicle="t_0" depart="179.00" arrival="352.00" arrivalPos="83.20" duration="173.00" routeLength="551.77" timeLoss="68.14"/>
    </personinfo>
    <personinfo id="2" depart="234.00" type="DEFAULT_PEDTYPE" speedFactor="1.12" duration="292.00" waitingTime="166.00" timeLoss="40.93" traveltime="126.00">
        <ride waitingTime="166.00" vehicle="t_0" depart="400.00" arrival="526.00" arrivalPos="0.20" duration="126.00" routeLength="278.79" timeLoss="40.93"/>
    </personinfo>
    <personinfo id="3" depart="431.00" type="DEFAULT_PEDTYPE" speedFactor="0.90" duration="279.00" waitingTime="170.00" timeLoss="4.35" traveltime="109.00">
        <ride waitingTime="170.00" vehicle="t_0" depart="601.00" arrival="710.00" arrivalPos="0.20" duration="109.00" routeLength="177.97" timeLoss="4.35"/>
    </personinfo>
    <personinfo id="4" depart="454.00" type="DEFAULT_PEDTYPE" speedFactor="0.88" duration="380.00" waitingTime="289.00" timeLoss="6.22" traveltime="91.00">
        <ride waitingTime="289.00" vehicle="t_0" depart="743.00" arrival="834.00" arrivalPos="0.20" duration="91.00" routeLength="200.02" timeLoss="6.22"/>
    </personinfo>
    <personinfo id="5" depart="642.00" type="DEFAULT_PEDTYPE" speedFactor="1.10" duration="284.00" waitingTime="117.00" timeLoss="10.41" traveltime="167.00">
        <ride waitingTime="117.00" vehicle="t_0" depart="759.00" arrival="926.00" arrivalPos="0.20" duration="167.00" routeLength="315.98" timeLoss="10.41"/>
    </personinfo>
    <personinfo id="6" depart="839.00" type="DEFAULT_PEDTYPE" speedFactor="1.06" duration="204.00" waitingTime="105.00" timeLoss="8.55" traveltime="99.00">
        <ride waitingTime="105.00" vehicle="t_0" depart="944.00" arrival="1043.00" arrivalPos="83.20" duration="99.00" routeLength="338.59" timeLoss="8.55"/>
    </personinfo>
    <personinfo id="7" depart="919.00" type="DEFAULT_PEDTYPE" speedFactor="0.92" duration="146.00" waitingTime="43.00" timeLoss="8.72" traveltime="103.00">
        <ride waitingTime="43.00" vehicle="t_1" depart="962.00" arrival="1065.00" arrivalPos="78.65" duration="103.00" routeLength="275.64" timeLoss="8.72"/>
    </personinfo>
    <personinfo id="8" depart="945.00" type="DEFAULT_PEDTYPE" speedFactor="1.09" duration="197.00" waitingTime="44.00" timeLoss="6.81" traveltime="153.00">
        <ride waitingTime="44.00" vehicle="t_1" depart="989.00" arrival="1142.00" arrivalPos="83.20" duration="153.00" routeLength="175.70" timeLoss="6.81"/>
    </personinfo>
    <personinfo id="9" depart="968.00" type="DEFAULT_PEDTYPE" speedFactor="1.03" duration="286.00" waitingTime="164.00" timeLoss="29.90" traveltime="122.00">
        <ride waitingTime="164.00" vehicle="t_0" depart="1132.00" arrival="1254.00" arrivalPos="83.20" duration="122.00" routeLength="352.21" timeLoss="29.90"/>
    </personinfo>
    <personinfo id="10" depart="991.00" type="DEFAULT_PEDTYPE" speedFactor="1.08" duration="362.00" waitingTime="230.00" timeLoss="31.98" traveltime="132.00">
        <ride waitingTime="230.00" vehicle="t_1" depart="1221.00" arrival="1353.00" arrivalPos="79.20" duration="132.00" routeLength="450.78" timeLoss="31.98"/>
    </personinfo>
    <personinfo id="12" depart="1266.00" type="DEFAULT_PEDTYPE" speedFactor="1.24" duration="125.00" waitingTime="39.00" timeLoss="6.30" traveltime="86.00">
        <ride waitingTime="39.00" vehicle="t_0" depart="1305.00" arrival="1391.00" arrivalPos="0.20" duration="86.00" routeLength="178.58" timeLoss="6.30"/>
    </personinfo>
    <personinfo id="11" depart="1068.00" type="DEFAULT_PEDTYPE" speedFactor="1.06" duration="448.00" waitingTime="356.00" timeLoss="10.32" traveltime="92.00">
        <ride waitingTime="356.00" vehicle="t_1" depart="1424.00" arrival="1516.00" arrivalPos="78.65" duration="92.00" routeLength="180.13" timeLoss="10.32"/>
    </personinfo>
    <personinfo id="13" depart="1291.00" type="DEFAULT_PEDTYPE" speedFactor="0.96" duration="329.00" waitingTime="165.00" timeLoss="6.39" traveltime="164.00">
        <ride waitingTime="165.00" vehicle="t_0" depart="1456.00" arrival="1620.00" arrivalPos="78.65" duration="164.00" routeLength="391.64" timeLoss="6.39"/>
    </personinfo>
    <personinfo id="17" depart="1586.00" type="DEFAULT_PEDTYPE" speedFactor="1.00" duration="144.00" waitingTime="14.00" timeLoss="9.69" traveltime="130.00">
        <ride waitingTime="14.00" vehicle="t_1" depart="1600.00" arrival="1730.00" arrivalPos="83.20" duration="130.00" routeLength="361.47" timeLoss="9.69"/>
    </personinfo>
    <personinfo id="14" depart="1507.00" type="DEFAULT_PEDTYPE" speedFactor="0.90" duration="290.00" waitingTime="200.00" timeLoss="4.81" traveltime="90.00">
        <ride waitingTime="200.00" vehicle="t_0" depart="1707.00" arrival="1797.00" arrivalPos="78.65" duration="90.00" routeLength="276.26" timeLoss="4.81"/>
    </personinfo>
    <personinfo id="15" depart="1533.00" type="DEFAULT_PEDTYPE" speedFactor="0.99" duration="422.00" waitingTime="317.00" timeLoss="10.23" traveltime="105.00">
        <ride waitingTime="317.00" vehicle="t_0" depart="1850.00" arrival="1955.00" arrivalPos="78.65" duration="105.00" routeLength="375.72" timeLoss="10.23"/>
    </personinfo>
    <personinfo id="18" depart="1663.00" type="DEFAULT_PEDTYPE" speedFactor="0.90" duration="312.00" waitingTime="145.00" timeLoss="53.97" traveltime="167.00">
        <ride waitingTime="145.00" vehicle="t_1" depart="1808.00" arrival="1975.00" arrivalPos="83.20" duration="167.00" routeLength="577.49" timeLoss="53.97"/>
    </personinfo>
    <personinfo id="16" depart="1559.00" type="DEFAULT_PEDTYPE" speedFactor="1.05" duration="539.00" waitingTime="245.00" timeLoss="107.58" traveltime="294.00">
        <ride waitingTime="245.00" vehicle="t_0" depart="1804.00" arrival="2098.00" arrivalPos="79.20" duration="294.00" routeLength="671.68" timeLoss="107.58"/>
    </personinfo>
    <personinfo id="19" depart="1736.00" type="DEFAULT_PEDTYPE" speedFactor="0.92" duration="380.00" waitingTime="269.00" timeLoss="10.44" traveltime="111.00">
        <ride waitingTime="269.00" vehicle="t_1" depart="2005.00" arrival="2116.00" arrivalPos="83.20" duration="111.00" routeLength="403.88" timeLoss="10.44"/>
    </personinfo>
    <personinfo id="20" depart="1953.00" type="DEFAULT_PEDTYPE" speedFactor="1.02" duration="297.00" waitingTime="164.00" timeLoss="41.31" traveltime="133.00">
        <ride waitingTime="164.00" vehicle="t_0" depart="2117.00" arrival="2250.00" arrivalPos="83.20" duration="133.00" routeLength="266.09" timeLoss="41.31"/>
    </personinfo>
    <personinfo id="21" depart="2159.00" type="DEFAULT_PEDTYPE" speedFactor="0.93" duration="223.00" waitingTime="119.00" timeLoss="16.07" traveltime="104.00">
        <ride waitingTime="119.00" vehicle="t_0" depart="2278.00" arrival="2382.00" arrivalPos="0.20" duration="104.00" routeLength="299.96" timeLoss="16.07"/>
    </personinfo>
    <personinfo id="23" depart="2390.00" type="DEFAULT_PEDTYPE" speedFactor="1.17" duration="240.00" waitingTime="56.00" timeLoss="46.68" traveltime="184.00">
        <ride waitingTime="56.00" vehicle="t_1" depart="2446.00" arrival="2630.00" arrivalPos="83.20" duration="184.00" routeLength="577.44" timeLoss="46.68"/>
    </personinfo>
    <personinfo id="25" depart="2496.00" type="DEFAULT_PEDTYPE" speedFactor="0.81" duration="324.00" waitingTime="221.00" timeLoss="7.30" traveltime="103.00">
        <ride waitingTime="221.00" vehicle="t_1" depart="2717.00" arrival="2820.00" arrivalPos="0.20" duration="103.00" routeLength="276.67" timeLoss="7.30"/>
    </personinfo>
    <personinfo id="26" depart="2568.00" type="DEFAULT_PEDTYPE" speedFactor="1.02" duration="390.00" waitingTime="165.00" timeLoss="52.70" traveltime="225.00">
        <ride waitingTime="165.00" vehicle="t_1" depart="2733.00" arrival="2958.00" arrivalPos="79.20" duration="225.00" routeLength="448.30" timeLoss="52.70"/>
    </personinfo>
    <personinfo id="27" depart="2760.00" type="DEFAULT_PEDTYPE" speedFactor="0.96" duration="253.00" waitingTime="101.00" timeLoss="55.56" traveltime="152.00">
        <ride waitingTime="101.00" vehicle="t_0" depart="2861.00" arrival="3013.00" arrivalPos="78.65" duration="152.00" routeLength="386.51" timeLoss="55.56"/>
    </personinfo>
    <personinfo id="28" depart="2841.00" type="DEFAULT_PEDTYPE" speedFactor="0.96" duration="289.00" waitingTime="156.00" timeLoss="18.45" traveltime="133.00">
        <ride waitingTime="156.00" vehicle="t_1" depart="2997.00" arrival="3130.00" arrivalPos="79.20" duration="133.00" routeLength="434.39" timeLoss="18.45"/>
    </personinfo>
    <personinfo id="29" depart="2865.00" type="DEFAULT_PEDTYPE" speedFactor="1.05" duration="375.00" waitingTime="132.00" timeLoss="41.85" traveltime="243.00">
        <ride waitingTime="132.00" vehicle="t_1" depart="2997.00" arrival="3240.00" arrivalPos="83.20" duration="243.00" routeLength="622.26" timeLoss="41.85"/>
    </personinfo>
    <personinfo id="22" depart="2182.00" type="DEFAULT_PEDTYPE" speedFactor="1.04" duration="1071.00" waitingTime="227.00" timeLoss="393.19" traveltime="844.00">
        <ride waitingTime="227.00" vehicle="t_0" depart="2409.00" arrival="3253.00" arrivalPos="83.20" duration="844.00" routeLength="3016.84" timeLoss="393.19"/>
    </personinfo>
    <personinfo id="30" depart="3067.00" type="DEFAULT_PEDTYPE" speedFactor="0.97" duration="313.00" waitingTime="195.00" timeLoss="15.19" traveltime="118.00">
        <ride waitingTime="195.00" vehicle="t_1" depart="3262.00" arrival="3380.00" arrivalPos="78.65" duration="118.00" routeLength="449.69" timeLoss="15.19"/>
    </personinfo>
    <personinfo id="24" depart="2470.00" type="DEFAULT_PEDTYPE" speedFactor="1.08" duration="940.00" waitingTime="124.00" timeLoss="364.74" traveltime="816.00">
        <ride waitingTime="124.00" vehicle="t_0" depart="2594.00" arrival="3410.00" arrivalPos="79.20" duration="816.00" routeLength="2527.39" timeLoss="364.74"/>
    </personinfo>
    <personinfo id="34" depart="3270.00" type="DEFAULT_PEDTYPE" speedFactor="0.92" duration="360.00" waitingTime="167.00" timeLoss="67.38" traveltime="193.00">
        <ride waitingTime="167.00" vehicle="t_0" depart="3437.00" arrival="3630.00" arrivalPos="83.20" duration="193.00" routeLength="361.50" timeLoss="67.38"/>
    </personinfo>
    <personinfo id="33" depart="3244.00" type="DEFAULT_PEDTYPE" speedFactor="0.98" duration="386.00" waitingTime="193.00" timeLoss="56.56" traveltime="193.00">
        <ride waitingTime="193.00" vehicle="t_1" depart="3437.00" arrival="3630.00" arrivalPos="78.65" duration="193.00" routeLength="819.80" timeLoss="56.56"/>
    </personinfo>
    <personinfo id="31" depart="3148.00" type="DEFAULT_PEDTYPE" speedFactor="1.11" duration="562.00" waitingTime="380.00" timeLoss="12.73" traveltime="182.00">
        <ride waitingTime="380.00" vehicle="t_1" depart="3528.00" arrival="3710.00" arrivalPos="78.65" duration="182.00" routeLength="439.64" timeLoss="12.73"/>
    </personinfo>
    <personinfo id="35" depart="3346.00" type="DEFAULT_PEDTYPE" speedFactor="0.81" duration="470.00" waitingTime="351.00" timeLoss="34.64" traveltime="119.00">
        <ride waitingTime="351.00" vehicle="t_0" depart="3697.00" arrival="3816.00" arrivalPos="79.20" duration="119.00" routeLength="261.07" timeLoss="34.64"/>
    </personinfo>
    <personinfo id="32" depart="3175.00" type="DEFAULT_PEDTYPE" speedFactor="1.01" duration="726.00" waitingTime="556.00" timeLoss="73.64" traveltime="170.00">
        <ride waitingTime="556.00" vehicle="t_1" depart="3731.00" arrival="3901.00" arrivalPos="78.65" duration="170.00" routeLength="368.78" timeLoss="73.64"/>
    </personinfo>
    <personinfo id="36" depart="3566.00" type="DEFAULT_PEDTYPE" speedFactor="0.97" duration="464.00" waitingTime="311.00" timeLoss="12.16" traveltime="153.00">
        <ride waitingTime="311.00" vehicle="t_0" depart="3877.00" arrival="4030.00" arrivalPos="78.65" duration="153.00" routeLength="387.92" timeLoss="12.16"/>
    </personinfo>
    <personinfo id="37" depart="3780.00" type="DEFAULT_PEDTYPE" speedFactor="1.06" duration="330.00" waitingTime="162.00" timeLoss="8.68" traveltime="168.00">
        <ride waitingTime="162.00" vehicle="t_1" depart="3942.00" arrival="4110.00" arrivalPos="83.20" duration="168.00" routeLength="790.02" timeLoss="8.68"/>
    </personinfo>
    <personinfo id="38" depart="3965.00" type="DEFAULT_PEDTYPE" speedFactor="1.07" duration="296.00" waitingTime="145.00" timeLoss="62.80" traveltime="151.00">
        <ride waitingTime="145.00" vehicle="t_0" depart="4110.00" arrival="4261.00" arrivalPos="79.20" duration="151.00" routeLength="280.70" timeLoss="62.80"/>
    </personinfo>
    <personinfo id="39" depart="4044.00" type="DEFAULT_PEDTYPE" speedFactor="1.04" duration="261.00" waitingTime="137.00" timeLoss="36.41" traveltime="124.00">
        <ride waitingTime="137.00" vehicle="t_1" depart="4181.00" arrival="4305.00" arrivalPos="83.20" duration="124.00" routeLength="262.18" timeLoss="36.41"/>
    </personinfo>
    <personinfo id="40" depart="4118.00" type="DEFAULT_PEDTYPE" speedFactor="0.88" duration="302.00" waitingTime="173.00" timeLoss="6.03" traveltime="129.00">
        <ride waitingTime="173.00" vehicle="t_0" depart="4291.00" arrival="4420.00" arrivalPos="0.20" duration="129.00" routeLength="255.32" timeLoss="6.03"/>
    </personinfo>
    <personinfo id="41" depart="4333.00" type="DEFAULT_PEDTYPE" speedFactor="1.08" duration="249.00" waitingTime="129.00" timeLoss="32.17" traveltime="120.00">
        <ride waitingTime="129.00" vehicle="t_0" depart="4462.00" arrival="4582.00" arrivalPos="0.20" duration="120.00" routeLength="290.29" timeLoss="32.17"/>
    </personinfo>
    <personinfo id="43" depart="4438.00" type="DEFAULT_PEDTYPE" speedFactor="1.09" duration="182.00" waitingTime="82.00" timeLoss="17.68" traveltime="100.00">
        <ride waitingTime="82.00" vehicle="t_1" depart="4520.00" arrival="4620.00" arrivalPos="79.20" duration="100.00" routeLength="206.85" timeLoss="17.68"/>
    </personinfo>
    <personinfo id="44" depart="4461.00" type="DEFAULT_PEDTYPE" speedFactor="0.89" duration="406.00" waitingTime="271.00" timeLoss="31.25" traveltime="135.00">
        <ride waitingTime="271.00" vehicle="t_1" depart="4732.00" arrival="4867.00" arrivalPos="78.65" duration="135.00" routeLength="464.36" timeLoss="31.25"/>
    </personinfo>
    <personinfo id="42" depart="4358.00" type="DEFAULT_PEDTYPE" speedFactor="1.03" duration="582.00" waitingTime="338.00" timeLoss="129.66" traveltime="244.00">
        <ride waitingTime="338.00" vehicle="t_0" depart="4696.00" arrival="4940.00" arrivalPos="78.65" duration="244.00" routeLength="564.43" timeLoss="129.66"/>
    </personinfo>
    <personinfo id="45" depart="4680.00" type="DEFAULT_PEDTYPE" speedFactor="1.12" duration="460.00" waitingTime="279.00" timeLoss="15.63" traveltime="181.00">
        <ride waitingTime="279.00" vehicle="t_1" depart="4959.00" arrival="5140.00" arrivalPos="83.20" duration="181.00" routeLength="570.43" timeLoss="15.63"/>
    </personinfo>
    <personinfo id="46" depart="4872.00" type="DEFAULT_PEDTYPE" speedFactor="0.82" duration="318.00" waitingTime="132.00" timeLoss="32.11" traveltime="186.00">
        <ride waitingTime="132.00" vehicle="t_0" depart="5004.00" arrival="5190.00" arrivalPos="0.20" duration="186.00" routeLength="708.49" timeLoss="32.11"/>
    </personinfo>
    <personinfo id="47" depart="4953.00" type="DEFAULT_PEDTYPE" speedFactor="1.06" duration="263.00" waitingTime="43.00" timeLoss="9.53" traveltime="220.00">
        <ride waitingTime="43.00" vehicle="t_1" depart="4996.00" arrival="5216.00" arrivalPos="83.20" duration="220.00" routeLength="375.78" timeLoss="9.53"/>
    </personinfo>
    <personinfo id="48" depart="5024.00" type="DEFAULT_PEDTYPE" speedFactor="1.12" duration="272.00" waitingTime="40.00" timeLoss="22.60" traveltime="232.00">
        <ride waitingTime="40.00" vehicle="t_0" depart="5064.00" arrival="5296.00" arrivalPos="79.20" duration="232.00" routeLength="589.48" timeLoss="22.60"/>
    </personinfo>
    <personinfo id="49" depart="5047.00" type="DEFAULT_PEDTYPE" speedFactor="0.98" duration="353.00" waitingTime="192.00" timeLoss="40.66" traveltime="161.00">
        <ride waitingTime="192.00" vehicle="t_1" depart="5239.00" arrival="5400.00" arrivalPos="78.65" duration="161.00" routeLength="589.59" timeLoss="40.66"/>
    </personinfo>
    <personinfo id="50" depart="5075.00" type="DEFAULT_PEDTYPE" speedFactor="1.01" duration="447.00" waitingTime="196.00" timeLoss="70.21" traveltime="251.00">
        <ride waitingTime="196.00" vehicle="t_1" depart="5271.00" arrival="5522.00" arrivalPos="83.20" duration="251.00" routeLength="578.51" timeLoss="70.21"/>
    </personinfo>
    <personinfo id="52" depart="5122.00" type="DEFAULT_PEDTYPE" speedFactor="1.00" duration="488.00" waitingTime="319.00" timeLoss="38.02" traveltime="169.00">
        <ride waitingTime="319.00" vehicle="t_0" depart="5441.00" arrival="5610.00" arrivalPos="78.65" duration="169.00" routeLength="362.20" timeLoss="38.02"/>
    </personinfo>
    <personinfo id="53" depart="5149.00" type="DEFAULT_PEDTYPE" speedFactor="0.96" duration="532.00" waitingTime="449.00" timeLoss="3.77" traveltime="83.00">
        <ride waitingTime="449.00" vehicle="t_1" depart="5598.00" arrival="5681.00" arrivalPos="78.65" duration="83.00" routeLength="162.24" timeLoss="3.77"/>
    </personinfo>
    <personinfo id="51" depart="5098.00" type="DEFAULT_PEDTYPE" speedFactor="0.99" duration="648.00" waitingTime="264.00" timeLoss="113.78" traveltime="384.00">
        <ride waitingTime="264.00" vehicle="t_0" depart="5362.00" arrival="5746.00" arrivalPos="79.20" duration="384.00" routeLength="1264.79" timeLoss="113.78"/>
    </personinfo>
    <personinfo id="54" depart="5337.00" type="DEFAULT_PEDTYPE" speedFactor="1.08" duration="593.00" waitingTime="458.00" timeLoss="4.02" traveltime="135.00">
        <ride waitingTime="458.00" vehicle="t_1" depart="5795.00" arrival="5930.00" arrivalPos="83.20" duration="135.00" routeLength="164.01" timeLoss="4.02"/>
    </personinfo>
    <personinfo id="55" depart="5543.00" type="DEFAULT_PEDTYPE" speedFactor="0.99" duration="397.00" waitingTime="258.00" timeLoss="49.01" traveltime="139.00">
        <ride waitingTime="258.00" vehicle="t_0" depart="5801.00" arrival="5940.00" arrivalPos="78.65" duration="139.00" routeLength="299.47" timeLoss="49.01"/>
    </personinfo>
    <personinfo id="56" depart="5612.00" type="DEFAULT_PEDTYPE" speedFactor="0.93" duration="524.00" waitingTime="382.00" timeLoss="27.60" traveltime="142.00">
        <ride waitingTime="382.00" vehicle="t_0" depart="5994.00" arrival="6136.00" arrivalPos="83.20" duration="142.00" routeLength="688.75" timeLoss="27.60"/>
    </personinfo>
    <personinfo id="58" depart="5869.00" type="DEFAULT_PEDTYPE" speedFactor="0.99" duration="353.00" waitingTime="198.00" timeLoss="47.49" traveltime="155.00">
        <ride waitingTime="198.00" vehicle="t_1" depart="6067.00" arrival="6222.00" arrivalPos="83.20" duration="155.00" routeLength="555.74" timeLoss="47.49"/>
    </personinfo>
    <personinfo id="57" depart="5680.00" type="DEFAULT_PEDTYPE" speedFactor="0.86" duration="570.00" waitingTime="303.00" timeLoss="95.76" traveltime="267.00">
        <ride waitingTime="303.00" vehicle="t_1" depart="5983.00" arrival="6250.00" arrivalPos="0.18" duration="267.00" routeLength="1238.04" timeLoss="95.76"/>
    </personinfo>
    <personinfo id="59" depart="6051.00" type="DEFAULT_PEDTYPE" speedFactor="1.07" duration="241.00" waitingTime="133.00" timeLoss="9.84" traveltime="108.00">
        <ride waitingTime="133.00" vehicle="t_0" depart="6184.00" arrival="6292.00" arrivalPos="83.20" duration="108.00" routeLength="461.44" timeLoss="9.84"/>
    </personinfo>
    <personinfo id="60" depart="6120.00" type="DEFAULT_PEDTYPE" speedFactor="1.02" duration="300.00" waitingTime="190.00" timeLoss="31.75" traveltime="110.00">
        <ride waitingTime="190.00" vehicle="t_1" depart="6310.00" arrival="6420.00" arrivalPos="0.20" duration="110.00" routeLength="176.32" timeLoss="31.75"/>
    </personinfo>
    <personinfo id="61" depart="6319.00" type="DEFAULT_PEDTYPE" speedFactor="1.00" duration="289.00" waitingTime="152.00" timeLoss="34.45" traveltime="137.00">
        <ride waitingTime="152.00" vehicle="t_1" depart="6471.00" arrival="6608.00" arrivalPos="83.20" duration="137.00" routeLength="457.25" timeLoss="34.45"/>
    </personinfo>
    <personinfo id="63" depart="6608.00" type="DEFAULT_PEDTYPE" speedFactor="1.10" duration="195.00" waitingTime="21.00" timeLoss="72.46" traveltime="174.00">
        <ride waitingTime="21.00" vehicle="t_0" depart="6629.00" arrival="6803.00" arrivalPos="78.65" duration="174.00" routeLength="452.08" timeLoss="72.46"/>
    </personinfo>
    <personinfo id="62" depart="6536.00" type="DEFAULT_PEDTYPE" speedFactor="1.02" duration="284.00" waitingTime="115.00" timeLoss="55.33" traveltime="169.00">
        <ride waitingTime="115.00" vehicle="t_1" depart="6651.00" arrival="6820.00" arrivalPos="83.20" duration="169.00" routeLength="350.23" timeLoss="55.33"/>
    </personinfo>
    <personinfo id="65" depart="6751.00" type="DEFAULT_PEDTYPE" speedFactor="0.94" duration="249.00" waitingTime="119.00" timeLoss="8.68" traveltime="130.00">
        <ride waitingTime="119.00" vehicle="t_1" depart="6870.00" arrival="7000.00" arrivalPos="79.20" duration="130.00" routeLength="305.38" timeLoss="8.68"/>
    </personinfo>
    <personinfo id="64" depart="6678.00" type="DEFAULT_PEDTYPE" speedFactor="0.88" duration="362.00" waitingTime="213.00" timeLoss="7.16" traveltime="149.00">
        <ride waitingTime="213.00" vehicle="t_0" depart="6891.00" arrival="7040.00" arrivalPos="79.20" duration="149.00" routeLength="376.22" timeLoss="7.16"/>
    </personinfo>
    <personinfo id="66" depart="6933.00" type="DEFAULT_PEDTYPE" speedFactor="1.03" duration="257.00" waitingTime="106.00" timeLoss="10.49" traveltime="151.00">
        <ride waitingTime="106.00" vehicle="t_1" depart="7039.00" arrival="7190.00" arrivalPos="78.65" duration="151.00" routeLength="342.26" timeLoss="10.49"/>
    </personinfo>
    <personinfo id="67" depart="6956.00" type="DEFAULT_PEDTYPE" speedFactor="1.10" duration="281.00" waitingTime="161.00" timeLoss="34.99" traveltime="120.00">
        <ride waitingTime="161.00" vehicle="t_0" depart="7117.00" arrival="7237.00" arrivalPos="79.20" duration="120.00" routeLength="246.32" timeLoss="34.99"/>
    </personinfo>
    <personinfo id="69" depart="7049.00" type="DEFAULT_PEDTYPE" speedFactor="1.05" duration="401.00" waitingTime="249.00" timeLoss="37.24" traveltime="152.00">
        <ride waitingTime="249.00" vehicle="t_1" depart="7298.00" arrival="7450.00" arrivalPos="78.65" duration="152.00" routeLength="299.40" timeLoss="37.24"/>
    </personinfo>
    <personinfo id="68" depart="6979.00" type="DEFAULT_PEDTYPE" speedFactor="0.94" duration="531.00" waitingTime="373.00" timeLoss="52.72" traveltime="158.00">
        <ride waitingTime="373.00" vehicle="t_0" depart="7352.00" arrival="7510.00" arrivalPos="79.20" duration="158.00" routeLength="376.27" timeLoss="52.72"/>
    </personinfo>
    <personinfo id="70" depart="7120.00" type="DEFAULT_PEDTYPE" speedFactor="0.91" duration="470.00" waitingTime="349.00" timeLoss="19.05" traveltime="121.00">
        <ride waitingTime="349.00" vehicle="t_1" depart="7469.00" arrival="7590.00" arrivalPos="83.20" duration="121.00" routeLength="442.77" timeLoss="19.05"/>
    </personinfo>
    <personinfo id="72" depart="7332.00" type="DEFAULT_PEDTYPE" speedFactor="0.86" duration="458.00" waitingTime="218.00" timeLoss="93.32" traveltime="240.00">
        <ride waitingTime="218.00" vehicle="t_0" depart="7550.00" arrival="7790.00" arrivalPos="83.20" duration="240.00" routeLength="445.30" timeLoss="93.32"/>
    </personinfo>
    <personinfo id="71" depart="7304.00" type="DEFAULT_PEDTYPE" speedFactor="0.87" duration="516.00" waitingTime="372.00" timeLoss="12.25" traveltime="144.00">
        <ride waitingTime="372.00" vehicle="t_1" depart="7676.00" arrival="7820.00" arrivalPos="83.20" duration="144.00" routeLength="199.39" timeLoss="12.25"/>
    </personinfo>
    <personinfo id="74" depart="7382.00" type="DEFAULT_PEDTYPE" speedFactor="1.04" duration="552.00" waitingTime="457.00" timeLoss="6.48" traveltime="95.00">
        <ride waitingTime="457.00" vehicle="t_1" depart="7839.00" arrival="7934.00" arrivalPos="78.65" duration="95.00" routeLength="256.17" timeLoss="6.48"/>
    </personinfo>
    <personinfo id="73" depart="7355.00" type="DEFAULT_PEDTYPE" speedFactor="0.79" duration="611.00" waitingTime="303.00" timeLoss="57.99" traveltime="308.00">
        <ride waitingTime="303.00" vehicle="t_0" depart="7658.00" arrival="7966.00" arrivalPos="83.20" duration="308.00" routeLength="866.38" timeLoss="57.99"/>
    </personinfo>
    <personinfo id="76" depart="7521.00" type="DEFAULT_PEDTYPE" speedFactor="1.02" duration="530.00" waitingTime="423.00" timeLoss="19.54" traveltime="107.00">
        <ride waitingTime="423.00" vehicle="t_1" depart="7944.00" arrival="8051.00" arrivalPos="83.20" duration="107.00" routeLength="253.84" timeLoss="19.54"/>
    </personinfo>
    <personinfo id="75" depart="7449.00" type="DEFAULT_PEDTYPE" speedFactor="0.93" duration="628.00" waitingTime="397.00" timeLoss="29.12" traveltime="231.00">
        <ride waitingTime="397.00" vehicle="t_0" depart="7846.00" arrival="8077.00" arrivalPos="79.20" duration="231.00" routeLength="847.50" timeLoss="29.12"/>
    </personinfo>
    <personinfo id="78" depart="7751.00" type="DEFAULT_PEDTYPE" speedFactor="0.84" duration="479.00" waitingTime="88.00" timeLoss="80.87" traveltime="391.00">
        <ride waitingTime="88.00" vehicle="t_1" depart="7839.00" arrival="8230.00" arrivalPos="83.20" duration="391.00" routeLength="830.10" timeLoss="80.87"/>
    </personinfo>
    <personinfo id="77" depart="7727.00" type="DEFAULT_PEDTYPE" speedFactor="1.21" duration="553.00" waitingTime="155.00" timeLoss="102.76" traveltime="398.00">
        <ride waitingTime="155.00" vehicle="t_0" depart="7882.00" arrival="8280.00" arrivalPos="83.20" duration="398.00" routeLength="1209.03" timeLoss="102.76"/>
    </personinfo>
    <personinfo id="79" depart="7953.00" type="DEFAULT_PEDTYPE" speedFactor="1.15" duration="428.00" waitingTime="353.00" timeLoss="2.62" traveltime="75.00">
        <ride waitingTime="353.00" vehicle="t_1" depart="8306.00" arrival="8381.00" arrivalPos="78.65" duration="75.00" routeLength="94.91" timeLoss="2.62"/>
    </personinfo>
    <personinfo id="80" depart="7976.00" type="DEFAULT_PEDTYPE" speedFactor="1.10" duration="467.00" waitingTime="315.00" timeLoss="50.69" traveltime="152.00">
        <ride waitingTime="315.00" vehicle="t_0" depart="8291.00" arrival="8443.00" arrivalPos="79.20" duration="152.00" routeLength="360.07" timeLoss="50.69"/>
    </personinfo>
    <personinfo id="82" depart="8185.00" type="DEFAULT_PEDTYPE" speedFactor="0.94" duration="375.00" waitingTime="147.00" timeLoss="55.57" traveltime="228.00">
        <ride waitingTime="147.00" vehicle="t_0" depart="8332.00" arrival="8560.00" arrivalPos="0.20" duration="228.00" routeLength="446.28" timeLoss="55.57"/>
    </personinfo>
    <personinfo id="81" depart="8162.00" type="DEFAULT_PEDTYPE" speedFactor="0.98" duration="508.00" waitingTime="370.00" timeLoss="30.87" traveltime="138.00">
        <ride waitingTime="370.00" vehicle="t_1" depart="8532.00" arrival="8670.00" arrivalPos="78.65" duration="138.00" routeLength="445.27" timeLoss="30.87"/>
    </personinfo>
    <personinfo id="83" depart="8210.00" type="DEFAULT_PEDTYPE" speedFactor="1.10" duration="467.00" waitingTime="362.00" timeLoss="19.29" traveltime="105.00">
        <ride waitingTime="362.00" vehicle="t_0" depart="8572.00" arrival="8677.00" arrivalPos="79.20" duration="105.00" routeLength="271.38" timeLoss="19.29"/>
    </personinfo>
    <personinfo id="84" depart="8413.00" type="DEFAULT_PEDTYPE" speedFactor="0.93" duration="366.00" waitingTime="153.00" timeLoss="34.16" traveltime="213.00">