<?xml version="1.0" encoding="UTF-8"?>

<!-- generated on 2026-03-31T18:14:13.897027+08:00 by Eclipse SUMO sumo 1.26.0
<sumoConfiguration xmlns:xsi="http://www.w3.org/2001/XMLSchema-instance" xsi:noNamespaceSchemaLocation="http://sumo.dlr.de/xsd/sumoConfiguration.xsd">

    <input>
        <net-file value="D:\FYP\DQNVersion1\SmallTestingMap\map.net.xml"/>
        <route-files value="D:\FYP\DQNVersion1\SmallTestingMap\map.rou.xml,D:\FYP\DQNVersion1\SmallTestingMap\persontrips_scale.rou.xml"/>
    </input>

    <output>
        <tripinfo-output value="D:\FYP\DQNVersion1\SmallTestingMap\tripinfos.xml"/>
        <stop-output value="D:\FYP\DQNVersion1\SmallTestingMap\stopinfos.xml"/>
        <statistic-output value="D:\FYP\DQNVersion1\SmallTestingMap\stats.xml"/>
    </output>

    <time>
        <step-length value="1.0"/>
    </time>

    <report>
        <verbose value="true"/>
        <duration-log.statistics value="true"/>
        <no-step-log value="true"/>
    </report>

    <taxi_device>
        <device.taxi.dispatch-algorithm value="traci"/>
        <device.taxi.idle-algorithm value="stop"/>
    </taxi_device>

    <traci_server>
        <remote-port value="59698"/>
    </traci_server>

</sumoConfiguration>
-->

<tripinfos xmlns:xsi="http://www.w3.org/2001/XMLSchema-instance" xsi:noNamespaceSchemaLocation="http://sumo.dlr.de/xsd/tripinfo_file.xsd">
    <personinfo id="0" depart="0.00" type="DEFAULT_PEDTYPE" speedFactor="1.01" duration="158.00" waitingTime="65.00" timeLoss="10.63" traveltime="93.00">
        <ride waitingTime="65.00" vehicle="t_0" depart="65.00" arrival="158.00" arrivalPos="0.20" duration="93.00" routeLength="213.47" timeLoss="10.63"/>
    </personinfo>
    <personinfo id="1" depart="24.00" type="DEFAULT_PEDTYPE" speedFactor="1.08" duration="240.00" waitingTime="52.00" timeLoss="79.73" traveltime="188.00">
        <ride waitingTime="52.00" vehicle="t_1" depart="76.00" arrival="264.00" arrivalPos="83.20" duration="188.00" routeLength="551.75" timeLoss="79.73"/>
    </personinfo>
    <personinfo id="2" depart="234.00" type="DEFAULT_PEDTYPE" speedFactor="1.12" duration="122.00" waitingTime="30.00" timeLoss="7.24" traveltime="92.00">
        <ride waitingTime="30.00" vehicle="t_0" depart="264.00" arrival="356.00" arrivalPos="0.20" duration="92.00" routeLength="278.79" timeLoss="7.24"/>
    </personinfo>
    <personinfo id="3" depart="431.00" type="DEFAULT_PEDTYPE" speedFactor="0.90" duration="139.00" waitingTime="53.00" timeLoss="7.07" traveltime="86.00">
        <ride waitingTime="53.00" vehicle="t_1" depart="484.00" arrival="570.00" arrivalPos="0.20" duration="86.00" routeLength="177.99" timeLoss="7.07"/>
    </personinfo>
    <personinfo id="4" depart="454.00" type="DEFAULT_PEDTYPE" speedFactor="0.88" duration="162.00" waitingTime="36.00" timeLoss="47.37" traveltime="126.00">
        <ride waitingTime="36.00" vehicle="t_0" depart="490.00" arrival="616.00" arrivalPos="0.20" duration="126.00" routeLength="200.02" timeLoss="47.37"/>
    </personinfo>
    <personinfo id="5" depart="642.00" type="DEFAULT_PEDTYPE" speedFactor="1.09" duration="185.00" waitingTime="84.00" timeLoss="7.84" traveltime="101.00">
        <ride waitingTime="84.00" vehicle="t_1" depart="726.00" arrival="827.00" arrivalPos="0.20" duration="101.00" routeLength="318.70" timeLoss="7.84"/>
    </personinfo>
    <personinfo id="7" depart="919.00" type="DEFAULT_PEDTYPE" speedFactor="1.02" duration="139.00" waitingTime="41.00" timeLoss="8.58" traveltime="98.00">
        <ride waitingTime="41.00" vehicle="t_1" depart="960.00" arrival="1058.00" arrivalPos="78.65" duration="98.00" routeLength="275.69" timeLoss="8.58"/>
    </personinfo>
    <personinfo id="6" depart="839.00" type="DEFAULT_PEDTYPE" speedFactor="1.03" duration="221.00" waitingTime="23.00" timeLoss="7.62" traveltime="198.00">
        <ride waitingTime="23.00" vehicle="t_0" depart="862.00" arrival="1060.00" arrivalPos="83.20" duration="198.00" routeLength="338.62" timeLoss="7.62"/>
    </personinfo>
    <personinfo id="8" depart="945.00" type="DEFAULT_PEDTYPE" speedFactor="1.06" duration="185.00" waitingTime="164.00" timeLoss="10.48" traveltime="21.00">
        <ride waitingTime="164.00" vehicle="t_0" depart="1109.00" arrival="1130.00" arrivalPos="5.00" duration="21.00" routeLength="97.53" timeLoss="10.48"/>
    </personinfo>
    <personinfo id="9" depart="968.00" type="DEFAULT_PEDTYPE" speedFactor="1.15" duration="289.00" waitingTime="164.00" timeLoss="31.17" traveltime="125.00">
        <ride waitingTime="164.00" vehicle="t_1" depart="1132.00" arrival="1257.00" arrivalPos="83.20" duration="125.00" routeLength="352.21" timeLoss="31.17"/>
    </personinfo>
    <personinfo id="10" depart="991.00" type="DEFAULT_PEDTYPE" speedFactor="1.03" duration="272.00" waitingTime="140.00" timeLoss="31.22" traveltime="132.00">
        <ride waitingTime="140.00" vehicle="t_0" depart="1131.00" arrival="1263.00" arrivalPos="79.20" duration="132.00" routeLength="450.84" timeLoss="31.22"/>
    </personinfo>
    <personinfo id="11" depart="1068.00" type="DEFAULT_PEDTYPE" speedFactor="0.82" duration="295.00" waitingTime="207.00" timeLoss="6.44" traveltime="88.00">
        <ride waitingTime="207.00" vehicle="t_1" depart="1275.00" arrival="1363.00" arrivalPos="78.65" duration="88.00" routeLength="180.12" timeLoss="6.44"/>
    </personinfo>
    <personinfo id="12" depart="1266.00" type="DEFAULT_PEDTYPE" speedFactor="0.96" duration="167.00" waitingTime="82.00" timeLoss="5.12" traveltime="85.00">
        <ride waitingTime="82.00" vehicle="t_0" depart="1348.00" arrival="1433.00" arrivalPos="0.20" duration="85.00" routeLength="178.60" timeLoss="5.12"/>
    </personinfo>
    <personinfo id="13" depart="1291.00" type="DEFAULT_PEDTYPE" speedFactor="1.06" duration="309.00" waitingTime="120.00" timeLoss="30.33" traveltime="189.00">
        <ride waitingTime="120.00" vehicle="t_1" depart="1411.00" arrival="1600.00" arrivalPos="78.65" duration="189.00" routeLength="391.64" timeLoss="30.33"/>
    </personinfo>
    <personinfo id="14" depart="1507.00" type="DEFAULT_PEDTYPE" speedFactor="0.99" duration="143.00" waitingTime="41.00" timeLoss="4.71" traveltime="102.00">
        <ride waitingTime="41.00" vehicle="t_0" depart="1548.00" arrival="1650.00" arrivalPos="78.65" duration="102.00" routeLength="276.27" timeLoss="4.71"/>
    </personinfo>
    <personinfo id="15" depart="1533.00" type="DEFAULT_PEDTYPE" speedFactor="0.99" duration="247.00" waitingTime="139.00" timeLoss="10.10" traveltime="108.00">
        <ride waitingTime="139.00" vehicle="t_1" depart="1672.00" arrival="1780.00" arrivalPos="78.65" duration="108.00" routeLength="375.72" timeLoss="10.10"/>
    </personinfo>
    <personinfo id="16" depart="1559.00" type="DEFAULT_PEDTYPE" speedFactor="1.21" duration="271.00" waitingTime="98.00" timeLoss="81.56" traveltime="173.00">
        <ride waitingTime="98.00" vehicle="t_0" depart="1657.00" arrival="1830.00" arrivalPos="79.20" duration="173.00" routeLength="318.33" timeLoss="81.56"/>
    </personinfo>
    <personinfo id="17" depart="1586.00" type="DEFAULT_PEDTYPE" speedFactor="1.02" duration="390.00" waitingTime="267.00" timeLoss="30.12" traveltime="123.00">
        <ride waitingTime="267.00" vehicle="t_0" depart="1853.00" arrival="1976.00" arrivalPos="83.20" duration="123.00" routeLength="361.44" timeLoss="30.12"/>
    </personinfo>
    <personinfo id="20" depart="1953.00" type="DEFAULT_PEDTYPE" speedFactor="1.05" duration="203.00" waitingTime="80.00" timeLoss="35.91" traveltime="123.00">
        <ride waitingTime="80.00" vehicle="t_1" depart="2033.00" arrival="2156.00" arrivalPos="83.20" duration="123.00" routeLength="266.17" timeLoss="35.91"/>
    </personinfo>
    <personinfo id="18" depart="1663.00" type="DEFAULT_PEDTYPE" speedFactor="0.97" duration="583.00" waitingTime="415.00" timeLoss="56.35" traveltime="168.00">
        <ride waitingTime="415.00" vehicle="t_0" depart="2078.00" arrival="2246.00" arrivalPos="83.20" duration="168.00" routeLength="577.42" timeLoss="56.35"/>
    </personinfo>
    <personinfo id="21" depart="2159.00" type="DEFAULT_PEDTYPE" speedFactor="1.12" duration="136.00" waitingTime="29.00" timeLoss="17.25" traveltime="107.00">
        <ride waitingTime="29.00" vehicle="t_1" depart="2188.00" arrival="2295.00" arrivalPos="0.20" duration="107.00" routeLength="299.97" timeLoss="17.25"/>
    </personinfo>
    <personinfo id="19" depart="1736.00" type="DEFAULT_PEDTYPE" speedFactor="0.99" duration="681.00" waitingTime="342.00" timeLoss="130.39" traveltime="339.00">
        <ride waitingTime="342.00" vehicle="t_0" depart="2078.00" arrival="2417.00" arrivalPos="83.20" duration="339.00" routeLength="958.11" timeLoss="130.39"/>
    </personinfo>
    <personinfo id="22" depart="2182.00" type="DEFAULT_PEDTYPE" speedFactor="0.74" duration="378.00" waitingTime="140.00" timeLoss="89.14" traveltime="238.00">
        <ride waitingTime="140.00" vehicle="t_1" depart="2322.00" arrival="2560.00" arrivalPos="83.20" duration="238.00" routeLength="476.02" timeLoss="89.14"/>
    </personinfo>
    <personinfo id="24" depart="2470.00" type="DEFAULT_PEDTYPE" speedFactor="0.94" duration="168.00" waitingTime="66.00" timeLoss="8.74" traveltime="102.00">
        <ride waitingTime="66.00" vehicle="t_0" depart="2536.00" arrival="2638.00" arrivalPos="79.20" duration="102.00" routeLength="352.25" timeLoss="8.74"/>
    </personinfo>
    <personinfo id="26" depart="2568.00" type="DEFAULT_PEDTYPE" speedFactor="1.15" duration="262.00" waitingTime="94.00" timeLoss="39.87" traveltime="168.00">
        <ride waitingTime="94.00" vehicle="t_0" depart="2662.00" arrival="2830.00" arrivalPos="79.20" duration="168.00" routeLength="453.06" timeLoss="39.87"/>
    </personinfo>
    <personinfo id="23" depart="2390.00" type="DEFAULT_PEDTYPE" speedFactor="0.87" duration="462.00" waitingTime="271.00" timeLoss="57.42" traveltime="191.00">
        <ride waitingTime="271.00" vehicle="t_1" depart="2661.00" arrival="2852.00" arrivalPos="83.20" duration="191.00" routeLength="750.24" timeLoss="57.42"/>
    </personinfo>
    <personinfo id="25" depart="2496.00" type="DEFAULT_PEDTYPE" speedFactor="1.01" duration="478.00" waitingTime="190.00" timeLoss="87.59" traveltime="288.00">
        <ride waitingTime="190.00" vehicle="t_1" depart="2686.00" arrival="2974.00" arrivalPos="0.20" duration="288.00" routeLength="854.63" timeLoss="87.59"/>
    </personinfo>
    <personinfo id="27" depart="2760.00" type="DEFAULT_PEDTYPE" speedFactor="1.15" duration="342.00" waitingTime="160.00" timeLoss="87.80" traveltime="182.00">
        <ride waitingTime="160.00" vehicle="t_0" depart="2920.00" arrival="3102.00" arrivalPos="78.65" duration="182.00" routeLength="386.51" timeLoss="87.80"/>
    </personinfo>
    <personinfo id="28" depart="2841.00" type="DEFAULT_PEDTYPE" speedFactor="0.98" duration="452.00" waitingTime="315.00" timeLoss="39.13" traveltime="137.00">
        <ride waitingTime="315.00" vehicle="t_0" depart="3156.00" arrival="3293.00" arrivalPos="79.20" duration="137.00" routeLength="434.34" timeLoss="39.13"/>
    </personinfo>
    <personinfo id="30" depart="3067.00" type="DEFAULT_PEDTYPE" speedFactor="1.07" duration="273.00" waitingTime="64.00" timeLoss="56.06" traveltime="209.00">
        <ride waitingTime="64.00" vehicle="t_1" depart="3131.00" arrival="3340.00" arrivalPos="78.65" duration="209.00" routeLength="449.63" timeLoss="56.06"/>
    </personinfo>
    <personinfo id="29" depart="2865.00" type="DEFAULT_PEDTYPE" speedFactor="0.98" duration="551.00" waitingTime="291.00" timeLoss="79.94" traveltime="260.00">
        <ride waitingTime="291.00" vehicle="t_0" depart="3156.00" arrival="3416.00" arrivalPos="83.20" duration="260.00" routeLength="622.21" timeLoss="79.94"/>
    </personinfo>
    <personinfo id="31" depart="3148.00" type="DEFAULT_PEDTYPE" speedFactor="1.04" duration="370.00" waitingTime="245.00" timeLoss="27.37" traveltime="125.00">
        <ride waitingTime="245.00" vehicle="t_1" depart="3393.00" arrival="3518.00" arrivalPos="78.65" duration="125.00" routeLength="313.51" timeLoss="27.37"/>
    </personinfo>
    <personinfo id="32" depart="3175.00" type="DEFAULT_PEDTYPE" speedFactor="1.17" duration="455.00" waitingTime="276.00" timeLoss="84.50" traveltime="179.00">
        <ride waitingTime="276.00" vehicle="t_0" depart="3451.00" arrival="3630.00" arrivalPos="78.65" duration="179.00" routeLength="368.78" timeLoss="84.50"/>
    </personinfo>
    <personinfo id="34" depart="3270.00" type="DEFAULT_PEDTYPE" speedFactor="1.08" duration="370.00" waitingTime="169.00" timeLoss="18.29" traveltime="201.00">
        <ride waitingTime="169.00" vehicle="t_1" depart="3439.00" arrival="3640.00" arrivalPos="83.20" duration="201.00" routeLength="596.68" timeLoss="18.29"/>
    </personinfo>
    <personinfo id="35" depart="3346.00" type="DEFAULT_PEDTYPE" speedFactor="1.27" duration="404.00" waitingTime="314.00" timeLoss="5.80" traveltime="90.00">
        <ride waitingTime="314.00" vehicle="t_0" depart="3660.00" arrival="3750.00" arrivalPos="79.20" duration="90.00" routeLength="261.03" timeLoss="5.80"/>
    </personinfo>
    <personinfo id="33" depart="3244.00" type="DEFAULT_PEDTYPE" speedFactor="1.07" duration="611.00" waitingTime="463.00" timeLoss="46.07" traveltime="148.00">
        <ride waitingTime="463.00" vehicle="t_1" depart="3707.00" arrival="3855.00" arrivalPos="78.65" duration="148.00" routeLength="451.21" timeLoss="46.07"/>
    </personinfo>
    <personinfo id="36" depart="3566.00" type="DEFAULT_PEDTYPE" speedFactor="0.99" duration="390.00" waitingTime="243.00" timeLoss="50.38" traveltime="147.00">
        <ride waitingTime="243.00" vehicle="t_0" depart="3809.00" arrival="3956.00" arrivalPos="78.65" duration="147.00" routeLength="387.88" timeLoss="50.38"/>
    </personinfo>
    <personinfo id="38" depart="3965.00" type="DEFAULT_PEDTYPE" speedFactor="1.03" duration="145.00" waitingTime="12.00" timeLoss="15.29" traveltime="133.00">
        <ride waitingTime="12.00" vehicle="t_1" depart="3977.00" arrival="4110.00" arrivalPos="79.20" duration="133.00" routeLength="280.76" timeLoss="15.29"/>
    </personinfo>
    <personinfo id="37" depart="3780.00" type="DEFAULT_PEDTYPE" speedFactor="1.08" duration="476.00" waitingTime="301.00" timeLoss="51.90" traveltime="175.00">
        <ride waitingTime="301.00" vehicle="t_0" depart="4081.00" arrival="4256.00" arrivalPos="83.20" duration="175.00" routeLength="790.00" timeLoss="51.90"/>
    </personinfo>
    <personinfo id="39" depart="4044.00" type="DEFAULT_PEDTYPE" speedFactor="1.02" duration="258.00" waitingTime="150.00" timeLoss="21.68" traveltime="108.00">
        <ride waitingTime="150.00" vehicle="t_1" depart="4194.00" arrival="4302.00" arrivalPos="83.20" duration="108.00" routeLength="262.19" timeLoss="21.68"/>
    </personinfo>
    <personinfo id="40" depart="4118.00" type="DEFAULT_PEDTYPE" speedFactor="0.86" duration="412.00" waitingTime="207.00" timeLoss="38.84" traveltime="205.00">
        <ride waitingTime="207.00" vehicle="t_0" depart="4325.00" arrival="4530.00" arrivalPos="0.20" duration="205.00" routeLength="255.35" timeLoss="38.84"/>
    </personinfo>
    <personinfo id="41" depart="4333.00" type="DEFAULT_PEDTYPE" speedFactor="0.97" duration="269.00" waitingTime="175.00" timeLoss="6.17" traveltime="94.00">
        <ride waitingTime="175.00" vehicle="t_1" depart="4508.00" arrival="4602.00" arrivalPos="0.20" duration="94.00" routeLength="290.30" timeLoss="6.17"/>
    </personinfo>
    <personinfo id="43" depart="4438.00" type="DEFAULT_PEDTYPE" speedFactor="1.10" duration="191.00" waitingTime="104.00" timeLoss="5.45" traveltime="87.00">
        <ride waitingTime="104.00" vehicle="t_0" depart="4542.00" arrival="4629.00" arrivalPos="79.20" duration="87.00" routeLength="206.83" timeLoss="5.45"/>
    </personinfo>
    <personinfo id="44" depart="4461.00" type="DEFAULT_PEDTYPE" speedFactor="1.07" duration="407.00" waitingTime="271.00" timeLoss="32.77" traveltime="136.00">
        <ride waitingTime="271.00" vehicle="t_0" depart="4732.00" arrival="4868.00" arrivalPos="78.65" duration="136.00" routeLength="464.33" timeLoss="32.77"/>
    </personinfo>
    <personinfo id="42" depart="4358.00" type="DEFAULT_PEDTYPE" speedFactor="1.16" duration="582.00" waitingTime="340.00" timeLoss="126.78" traveltime="242.00">
        <ride waitingTime="340.00" vehicle="t_1" depart="4698.00" arrival="4940.00" arrivalPos="78.65" duration="242.00" routeLength="564.47" timeLoss="126.78"/>
    </personinfo>
    <personinfo id="45" depart="4680.00" type="DEFAULT_PEDTYPE" speedFactor="1.11" duration="510.00" waitingTime="278.00" timeLoss="10.43" traveltime="232.00">
        <ride waitingTime="278.00" vehicle="t_0" depart="4958.00" arrival="5190.00" arrivalPos="83.20" duration="232.00" routeLength="553.36" timeLoss="10.43"/>
    </personinfo>
    <personinfo id="46" depart="4872.00" type="DEFAULT_PEDTYPE" speedFactor="1.06" duration="338.00" waitingTime="131.00" timeLoss="27.92" traveltime="207.00">
        <ride waitingTime="131.00" vehicle="t_1" depart="5003.00" arrival="5210.00" arrivalPos="0.20" duration="207.00" routeLength="311.91" timeLoss="27.92"/>
    </personinfo>
    <personinfo id="47" depart="4953.00" type="DEFAULT_PEDTYPE" speedFactor="0.99" duration="444.00" waitingTime="103.00" timeLoss="87.92" traveltime="341.00">
        <ride waitingTime="103.00" vehicle="t_1" depart="5056.00" arrival="5397.00" arrivalPos="83.20" duration="341.00" routeLength="418.90" timeLoss="87.92"/>
    </personinfo>
    <personinfo id="48" depart="5024.00" type="DEFAULT_PEDTYPE" speedFactor="1.06" duration="379.00" waitingTime="244.00" timeLoss="41.97" traveltime="135.00">
        <ride waitingTime="244.00" vehicle="t_0" depart="5268.00" arrival="5403.00" arrivalPos="79.20" duration="135.00" routeLength="340.10" timeLoss="41.97"/>
    </personinfo>
    <personinfo id="49" depart="5047.00" type="DEFAULT_PEDTYPE" speedFactor="1.02" duration="477.00" waitingTime="370.00" timeLoss="9.36" traveltime="107.00">
        <ride waitingTime="370.00" vehicle="t_1" depart="5417.00" arrival="5524.00" arrivalPos="78.65" duration="107.00" routeLength="376.39" timeLoss="9.36"/>
    </personinfo>
    <personinfo id="50" depart="5075.00" type="DEFAULT_PEDTYPE" speedFactor="1.10" duration="535.00" waitingTime="396.00" timeLoss="45.08" traveltime="139.00">
        <ride waitingTime="396.00" vehicle="t_0" depart="5471.00" arrival="5610.00" arrivalPos="83.20" duration="139.00" routeLength="363.54" timeLoss="45.08"/>
    </personinfo>
    <personinfo id="53" depart="5149.00" type="DEFAULT_PEDTYPE" speedFactor="0.99" duration="472.00" waitingTime="387.00" timeLoss="4.47" traveltime="85.00">
        <ride waitingTime="387.00" vehicle="t_1" depart="5536.00" arrival="5621.00" arrivalPos="78.65" duration="85.00" routeLength="162.28" timeLoss="4.47"/>
    </personinfo>
    <personinfo id="52" depart="5122.00" type="DEFAULT_PEDTYPE" speedFactor="0.91" duration="668.00" waitingTime="565.00" timeLoss="8.90" traveltime="103.00">
        <ride waitingTime="565.00" vehicle="t_0" depart="5687.00" arrival="5790.00" arrivalPos="78.65" duration="103.00" routeLength="362.20" timeLoss="8.90"/>
    </personinfo>
    <personinfo id="51" depart="5098.00" type="DEFAULT_PEDTYPE" speedFactor="0.94" duration="738.00" waitingTime="624.00" timeLoss="24.84" traveltime="114.00">
        <ride waitingTime="624.00" vehicle="t_1" depart="5722.00" arrival="5836.00" arrivalPos="79.20" duration="114.00" routeLength="279.50" timeLoss="24.84"/>
    </personinfo>
    <personinfo id="54" depart="5337.00" type="DEFAULT_PEDTYPE" speedFactor="0.92" duration="575.00" waitingTime="492.00" timeLoss="3.88" traveltime="83.00">
        <ride waitingTime="492.00" vehicle="t_0" depart="5829.00" arrival="5912.00" arrivalPos="83.20" duration="83.00" routeLength="164.00" timeLoss="3.88"/>
    </personinfo>
    <personinfo id="55" depart="5543.00" type="DEFAULT_PEDTYPE" speedFactor="1.07" duration="489.00" waitingTime="350.00" timeLoss="46.93" traveltime="139.00">
        <ride waitingTime="350.00" vehicle="t_1" depart="5893.00" arrival="6032.00" arrivalPos="78.65" duration="139.00" routeLength="299.44" timeLoss="46.93"/>
    </personinfo>
    <personinfo id="57" depart="5680.00" type="DEFAULT_PEDTYPE" speedFactor="0.91" duration="396.00" waitingTime="300.00" timeLoss="9.81" traveltime="96.00">
        <ride waitingTime="300.00" vehicle="t_0" depart="5980.00" arrival="6076.00" arrivalPos="0.20" duration="96.00" routeLength="282.54" timeLoss="9.81"/>
    </personinfo>
    <personinfo id="58" depart="5869.00" type="DEFAULT_PEDTYPE" speedFactor="0.94" duration="352.00" waitingTime="182.00" timeLoss="64.12" traveltime="170.00">
        <ride waitingTime="182.00" vehicle="t_1" depart="6051.00" arrival="6221.00" arrivalPos="83.20" duration="170.00" routeLength="555.69" timeLoss="64.12"/>
    </personinfo>
    <personinfo id="56" depart="5612.00" type="DEFAULT_PEDTYPE" speedFactor="1.13" duration="614.00" waitingTime="483.00" timeLoss="17.03" traveltime="131.00">
        <ride waitingTime="483.00" vehicle="t_0" depart="6095.00" arrival="6226.00" arrivalPos="83.20" duration="131.00" routeLength="688.79" timeLoss="17.03"/>
    </personinfo>
    <personinfo id="60" depart="6120.00" type="DEFAULT_PEDTYPE" speedFactor="0.87" duration="260.00" waitingTime="152.00" timeLoss="7.43" traveltime="108.00">
        <ride waitingTime="152.00" vehicle="t_0" depart="6272.00" arrival="6380.00" arrivalPos="0.20" duration="108.00" routeLength="176.25" timeLoss="7.43"/>
    </personinfo>
    <personinfo id="59" depart="6051.00" type="DEFAULT_PEDTYPE" speedFactor="1.01" duration="335.00" waitingTime="201.00" timeLoss="33.13" traveltime="134.00">
        <ride waitingTime="201.00" vehicle="t_1" depart="6252.00" arrival="6386.00" arrivalPos="83.20" duration="134.00" routeLength="461.42" timeLoss="33.13"/>
    </personinfo>
    <personinfo id="61" depart="6319.00" type="DEFAULT_PEDTYPE" speedFactor="1.01" duration="288.00" waitingTime="152.00" timeLoss="36.69" traveltime="136.00">
        <ride waitingTime="152.00" vehicle="t_0" depart="6471.00" arrival="6607.00" arrivalPos="83.20" duration="136.00" routeLength="457.24" timeLoss="36.69"/>
    </personinfo>
    <personinfo id="62" depart="6536.00" type="DEFAULT_PEDTYPE" speedFactor="0.96" duration="175.00" waitingTime="27.00" timeLoss="52.60" traveltime="148.00">
        <ride waitingTime="27.00" vehicle="t_1" depart="6563.00" arrival="6711.00" arrivalPos="83.20" duration="148.00" routeLength="350.26" timeLoss="52.60"/>
    </personinfo>
    <personinfo id="63" depart="6608.00" type="DEFAULT_PEDTYPE" speedFactor="0.97" duration="194.00" waitingTime="38.00" timeLoss="54.16" traveltime="156.00">
        <ride waitingTime="38.00" vehicle="t_0" depart="6646.00" arrival="6802.00" arrivalPos="78.65" duration="156.00" routeLength="452.07" timeLoss="54.16"/>
    </personinfo>
    <personinfo id="65" depart="6751.00" type="DEFAULT_PEDTYPE" speedFactor="1.00" duration="140.00" waitingTime="42.00" timeLoss="8.20" traveltime="98.00">
        <ride waitingTime="42.00" vehicle="t_1" depart="6793.00" arrival="6891.00" arrivalPos="79.20" duration="98.00" routeLength="305.38" timeLoss="8.20"/>
    </personinfo>
    <personinfo id="64" depart="6678.00" type="DEFAULT_PEDTYPE" speedFactor="0.93" duration="342.00" waitingTime="213.00" timeLoss="6.96" traveltime="129.00">
        <ride waitingTime="213.00" vehicle="t_0" depart="6891.00" arrival="7020.00" arrivalPos="79.20" duration="129.00" routeLength="376.21" timeLoss="6.96"/>
    </personinfo>
    <personinfo id="66" depart="6933.00" type="DEFAULT_PEDTYPE" speedFactor="1.17" duration="251.00" waitingTime="28.00" timeLoss="60.44" traveltime="223.00">
        <ride waitingTime="28.00" vehicle="t_1" depart="6961.00" arrival="7184.00" arrivalPos="78.65" duration="223.00" routeLength="1137.15" timeLoss="60.44"/>
    </personinfo>
    <personinfo id="67" depart="6956.00" type="DEFAULT_PEDTYPE" speedFactor="0.93" duration="234.00" waitingTime="92.00" timeLoss="16.35" traveltime="142.00">
        <ride waitingTime="92.00" vehicle="t_0" depart="7048.00" arrival="7190.00" arrivalPos="79.20" duration="142.00" routeLength="246.32" timeLoss="16.35"/>
    </personinfo>
    <personinfo id="68" depart="6979.00" type="DEFAULT_PEDTYPE" speedFactor="0.95" duration="295.00" waitingTime="48.00" timeLoss="54.46" traveltime="247.00">
        <ride waitingTime="48.00" vehicle="t_1" depart="7027.00" arrival="7274.00" arrivalPos="79.20" duration="247.00" routeLength="764.63" timeLoss="54.46"/>
    </personinfo>
    <personinfo id="69" depart="7049.00" type="DEFAULT_PEDTYPE" speedFactor="1.08" duration="378.00" waitingTime="233.00" timeLoss="53.34" traveltime="145.00">
        <ride waitingTime="233.00" vehicle="t_1" depart="7282.00" arrival="7427.00" arrivalPos="78.65" duration="145.00" routeLength="299.42" timeLoss="53.34"/>
    </personinfo>
    <personinfo id="70" depart="7120.00" type="DEFAULT_PEDTYPE" speedFactor="1.21" duration="330.00" waitingTime="141.00" timeLoss="48.49" traveltime="189.00">
        <ride waitingTime="141.00" vehicle="t_0" depart="7261.00" arrival="7450.00" arrivalPos="83.20" duration="189.00" routeLength="442.69" timeLoss="48.49"/>
    </personinfo>
    <personinfo id="72" depart="7332.00" type="DEFAULT_PEDTYPE" speedFactor="1.08" duration="242.00" waitingTime="124.00" timeLoss="12.20" traveltime="118.00">
        <ride waitingTime="124.00" vehicle="t_1" depart="7456.00" arrival="7574.00" arrivalPos="83.20" duration="118.00" routeLength="445.32" timeLoss="12.20"/>
    </personinfo>
    <personinfo id="71" depart="7304.00" type="DEFAULT_PEDTYPE" speedFactor="1.00" duration="287.00" waitingTime="192.00" timeLoss="13.82" traveltime="95.00">
        <ride waitingTime="192.00" vehicle="t_0" depart="7496.00" arrival="7591.00" arrivalPos="83.20" duration="95.00" routeLength="199.34" timeLoss="13.82"/>
    </personinfo>
    <personinfo id="73" depart="7355.00" type="DEFAULT_PEDTYPE" speedFactor="1.13" duration="325.00" waitingTime="125.00" timeLoss="15.91" traveltime="200.00">
        <ride waitingTime="125.00" vehicle="t_1" depart="7480.00" arrival="7680.00" arrivalPos="83.20" duration="200.00" routeLength="650.19" timeLoss="15.91"/>
    </personinfo>
    <personinfo id="74" depart="7382.00" type="DEFAULT_PEDTYPE" speedFactor="0.85" duration="372.00" waitingTime="277.00" timeLoss="8.00" traveltime="95.00">
        <ride waitingTime="277.00" vehicle="t_0" depart="7659.00" arrival="7754.00" arrivalPos="78.65" duration="95.00" routeLength="256.16" timeLoss="8.00"/>
    </personinfo>
    <personinfo id="75" depart="7449.00" type="DEFAULT_PEDTYPE" speedFactor="1.02" duration="371.00" waitingTime="261.00" timeLoss="5.98" traveltime="110.00">
        <ride waitingTime="261.00" vehicle="t_1" depart="7710.00" arrival="7820.00" arrivalPos="79.20" duration="110.00" routeLength="306.15" timeLoss="5.98"/>
    </personinfo>
    <personinfo id="76" depart="7521.00" type="DEFAULT_PEDTYPE" speedFactor="1.04" duration="348.00" waitingTime="243.00" timeLoss="18.79" traveltime="105.00">
        <ride waitingTime="243.00" vehicle="t_0" depart="7764.00" arrival="7869.00" arrivalPos="83.20" duration="105.00" routeLength="253.81" timeLoss="18.79"/>
    </personinfo>
    <personinfo id="77" depart="7727.00" type="DEFAULT_PEDTYPE" speedFactor="1.01" duration="308.00" waitingTime="138.00" timeLoss="51.97" traveltime="170.00">
        <ride waitingTime="138.00" vehicle="t_1" depart="7865.00" arrival="8035.00" arrivalPos="83.20" duration="170.00" routeLength="648.09" timeLoss="51.97"/>
    </personinfo>
    <personinfo id="79" depart="7953.00" type="DEFAULT_PEDTYPE" speedFactor="0.84" duration="195.00" waitingTime="117.00" timeLoss="3.80" traveltime="78.00">
        <ride waitingTime="117.00" vehicle="t_0" depart="8070.00" arrival="8148.00" arrivalPos="78.65" duration="78.00" routeLength="94.89" timeLoss="3.80"/>
    </personinfo>
    <personinfo id="80" depart="7976.00" type="DEFAULT_PEDTYPE" speedFactor="0.92" duration="283.00" waitingTime="181.00" timeLoss="7.61" traveltime="102.00">
        <ride waitingTime="181.00" vehicle="t_0" depart="8157.00" arrival="8259.00" arrivalPos="79.20" duration="102.00" routeLength="372.71" timeLoss="7.61"/>
    </personinfo>
    <personinfo id="78" depart="7751.00" type="DEFAULT_PEDTYPE" speedFactor="0.94" duration="529.00" waitingTime="330.00" timeLoss="40.48" traveltime="199.00">
        <ride waitingTime="330.00" vehicle="t_1" depart="8081.00" arrival="8280.00" arrivalPos="83.20" duration="199.00" routeLength="656.15" timeLoss="40.48"/>
    </personinfo>
    <personinfo id="82" depart="8185.00" type="DEFAULT_PEDTYPE" speedFactor="1.01" duration="214.00" waitingTime="115.00" timeLoss="8.91" traveltime="99.00">
        <ride waitingTime="115.00" vehicle="t_1" depart="8300.00" arrival="8399.00" arrivalPos="0.20" duration="99.00" routeLength="278.58" timeLoss="8.91"/>
    </personinfo>
    <personinfo id="81" depart="8162.00" type="DEFAULT_PEDTYPE" speedFactor="0.87" duration="328.00" waitingTime="171.00" timeLoss="55.41" traveltime="157.00">
        <ride waitingTime="171.00" vehicle="t_0" depart="8333.00" arrival="8490.00" arrivalPos="78.65" duration="157.00" routeLength="447.19" timeLoss="55.41"/>
    </personinfo>
    <personinfo id="83" depart="8210.00" type="DEFAULT_PEDTYPE" speedFactor="0.92" duration="287.00" waitingTime="121.00" timeLoss="13.28" traveltime="166.00">
        <ride waitingTime="121.00" vehicle="t_1" depart="8331.00" arrival="8497.00" arrivalPos="79.20" duration="166.00" routeLength="271.36" timeLoss="13.28"/>
    </personinfo>
    <personinfo id="84" depart="8413.00" type="DEFAULT_PEDTYPE" speedFactor="1.01" duration="237.00" waitingTime="93.00" timeLoss="39.15" traveltime="144.00">
        <ride waitingTime="93.00" vehicle="t_0" depart="8506.00" arrival="8650.00" arrivalPos="78.65" duration="144.00" routeLength="539.42" timeLoss="39.15"/>