<?xml version="1.0" encoding="UTF-8"?>

<!-- generated on 2026-03-30T17:13:35.279153+08:00 by Eclipse SUMO sumo 1.26.0
<sumoConfiguration xmlns:xsi="http://www.w3.org/2001/XMLSchema-instance" xsi:noNamespaceSchemaLocation="http://sumo.dlr.de/xsd/sumoConfiguration.xsd">

    <input>
        <net-file value="D:\FYP\DQNVersion1\SmallTestingMap\map.net.xml"/>
        <route-files value="D:\FYP\DQNVersion1\SmallTestingMap\map.rou.xml,D:\FYP\DQNVersion1\SmallTestingMap\persontrips_scale.rou.xml"/>
    </input>

    <output>
        <tripinfo-output value="D:\FYP\DQNVersion1\SmallTestingMap\tripinfos.xml"/>
        <stop-output value="D:\FYP\DQNVersion1\SmallTestingMap\stopinfos.xml"/>
        <statistic-output value="D:\FYP\DQNVersion1\SmallTestingMap\stats.xml"/>
    </output>

    <time>
        <step-length value="1.0"/>
    </time>

    <report>
        <verbose value="true"/>
        <duration-log.statistics value="true"/>
        <no-step-log value="true"/>
    </report>

    <taxi_device>
        <device.taxi.dispatch-algorithm value="traci"/>
    </taxi_device>

    <traci_server>
        <remote-port value="58625"/>
    </traci_server>

</sumoConfiguration>
-->

<tripinfos xmlns:xsi="http://www.w3.org/2001/XMLSchema-instance" xsi:noNamespaceSchemaLocation="http://sumo.dlr.de/xsd/tripinfo_file.xsd">
    <personinfo id="0" depart="0.00" type="DEFAULT_PEDTYPE" speedFactor="1.01" duration="158.00" waitingTime="65.00" timeLoss="10.63" traveltime="93.00">
        <ride waitingTime="65.00" vehicle="t_0" depart="65.00" arrival="158.00" arrivalPos="0.20" duration="93.00" routeLength="213.47" timeLoss="10.63"/>
    </personinfo>
    <personinfo id="1" depart="24.00" type="DEFAULT_PEDTYPE" speedFactor="1.08" duration="240.00" waitingTime="52.00" timeLoss="79.73" traveltime="188.00">
        <ride waitingTime="52.00" vehicle="t_1" depart="76.00" arrival="264.00" arrivalPos="83.20" duration="188.00" routeLength="551.75" timeLoss="79.73"/>
    </personinfo>
    <personinfo id="2" depart="234.00" type="DEFAULT_PEDTYPE" speedFactor="1.12" duration="122.00" waitingTime="30.00" timeLoss="7.24" traveltime="92.00">
        <ride waitingTime="30.00" vehicle="t_0" depart="264.00" arrival="356.00" arrivalPos="0.20" duration="92.00" routeLength="278.79" timeLoss="7.24"/>
    </personinfo>
    <personinfo id="3" depart="431.00" type="DEFAULT_PEDTYPE" speedFactor="0.90" duration="139.00" waitingTime="53.00" timeLoss="7.07" traveltime="86.00">
        <ride waitingTime="53.00" vehicle="t_1" depart="484.00" arrival="570.00" arrivalPos="0.20" duration="86.00" routeLength="177.99" timeLoss="7.07"/>
    </personinfo>
    <personinfo id="4" depart="454.00" type="DEFAULT_PEDTYPE" speedFactor="0.88" duration="281.00" waitingTime="196.00" timeLoss="5.19" traveltime="85.00">
        <ride waitingTime="196.00" vehicle="t_1" depart="650.00" arrival="735.00" arrivalPos="0.20" duration="85.00" routeLength="199.98" timeLoss="5.19"/>
    </personinfo>
    <personinfo id="5" depart="642.00" type="DEFAULT_PEDTYPE" speedFactor="1.09" duration="184.00" waitingTime="84.00" timeLoss="7.98" traveltime="100.00">
        <ride waitingTime="84.00" vehicle="t_0" depart="726.00" arrival="826.00" arrivalPos="0.20" duration="100.00" routeLength="318.73" timeLoss="7.98"/>
    </personinfo>
    <personinfo id="6" depart="839.00" type="DEFAULT_PEDTYPE" speedFactor="1.03" duration="124.00" waitingTime="23.00" timeLoss="8.40" traveltime="101.00">
        <ride waitingTime="23.00" vehicle="t_1" depart="862.00" arrival="963.00" arrivalPos="83.20" duration="101.00" routeLength="338.62" timeLoss="8.40"/>
    </personinfo>
    <personinfo id="8" depart="945.00" type="DEFAULT_PEDTYPE" speedFactor="1.11" duration="95.00" waitingTime="42.00" timeLoss="42.37" traveltime="53.00">
        <ride waitingTime="42.00" vehicle="t_0" depart="987.00" arrival="1040.00" arrivalPos="5.00" duration="53.00" routeLength="97.47" timeLoss="42.37"/>
    </personinfo>
    <personinfo id="7" depart="919.00" type="DEFAULT_PEDTYPE" speedFactor="0.95" duration="222.00" waitingTime="42.00" timeLoss="53.30" traveltime="180.00">
        <ride waitingTime="42.00" vehicle="t_0" depart="961.00" arrival="1141.00" arrivalPos="78.65" duration="180.00" routeLength="629.89" timeLoss="53.30"/>
    </personinfo>
    <personinfo id="9" depart="968.00" type="DEFAULT_PEDTYPE" speedFactor="1.16" duration="199.00" waitingTime="74.00" timeLoss="31.18" traveltime="125.00">
        <ride waitingTime="74.00" vehicle="t_1" depart="1042.00" arrival="1167.00" arrivalPos="83.20" duration="125.00" routeLength="352.21" timeLoss="31.18"/>
    </personinfo>
    <personinfo id="10" depart="991.00" type="DEFAULT_PEDTYPE" speedFactor="0.94" duration="246.00" waitingTime="50.00" timeLoss="15.01" traveltime="196.00">
        <ride waitingTime="50.00" vehicle="t_0" depart="1041.00" arrival="1237.00" arrivalPos="79.20" duration="196.00" routeLength="623.69" timeLoss="15.01"/>
    </personinfo>
    <personinfo id="11" depart="1068.00" type="DEFAULT_PEDTYPE" speedFactor="1.13" duration="292.00" waitingTime="201.00" timeLoss="6.30" traveltime="91.00">
        <ride waitingTime="201.00" vehicle="t_0" depart="1269.00" arrival="1360.00" arrivalPos="78.65" duration="91.00" routeLength="180.15" timeLoss="6.30"/>
    </personinfo>
    <personinfo id="12" depart="1266.00" type="DEFAULT_PEDTYPE" speedFactor="0.90" duration="128.00" waitingTime="42.00" timeLoss="5.82" traveltime="86.00">
        <ride waitingTime="42.00" vehicle="t_1" depart="1308.00" arrival="1394.00" arrivalPos="0.20" duration="86.00" routeLength="178.59" timeLoss="5.82"/>
    </personinfo>
    <personinfo id="13" depart="1291.00" type="DEFAULT_PEDTYPE" speedFactor="0.99" duration="247.00" waitingTime="121.00" timeLoss="28.73" traveltime="126.00">
        <ride waitingTime="121.00" vehicle="t_0" depart="1412.00" arrival="1538.00" arrivalPos="78.65" duration="126.00" routeLength="391.63" timeLoss="28.73"/>
    </personinfo>
    <personinfo id="14" depart="1507.00" type="DEFAULT_PEDTYPE" speedFactor="1.16" duration="133.00" waitingTime="42.00" timeLoss="4.57" traveltime="91.00">
        <ride waitingTime="42.00" vehicle="t_1" depart="1549.00" arrival="1640.00" arrivalPos="78.65" duration="91.00" routeLength="276.26" timeLoss="4.57"/>
    </personinfo>
    <personinfo id="15" depart="1533.00" type="DEFAULT_PEDTYPE" speedFactor="1.12" duration="252.00" waitingTime="140.00" timeLoss="16.20" traveltime="112.00">
        <ride waitingTime="140.00" vehicle="t_0" depart="1673.00" arrival="1785.00" arrivalPos="78.65" duration="112.00" routeLength="375.74" timeLoss="16.20"/>
    </personinfo>
    <personinfo id="18" depart="1663.00" type="DEFAULT_PEDTYPE" speedFactor="1.09" duration="221.00" waitingTime="25.00" timeLoss="84.24" traveltime="196.00">
        <ride waitingTime="25.00" vehicle="t_1" depart="1688.00" arrival="1884.00" arrivalPos="83.20" duration="196.00" routeLength="577.46" timeLoss="84.24"/>
    </personinfo>
    <personinfo id="16" depart="1559.00" type="DEFAULT_PEDTYPE" speedFactor="1.01" duration="450.00" waitingTime="310.00" timeLoss="50.22" traveltime="140.00">
        <ride waitingTime="310.00" vehicle="t_0" depart="1869.00" arrival="2009.00" arrivalPos="79.20" duration="140.00" routeLength="318.39" timeLoss="50.22"/>
    </personinfo>
    <personinfo id="19" depart="1736.00" type="DEFAULT_PEDTYPE" speedFactor="1.07" duration="285.00" waitingTime="180.00" timeLoss="6.41" traveltime="105.00">
        <ride waitingTime="180.00" vehicle="t_1" depart="1916.00" arrival="2021.00" arrivalPos="83.20" duration="105.00" routeLength="403.89" timeLoss="6.41"/>
    </personinfo>
    <personinfo id="17" depart="1586.00" type="DEFAULT_PEDTYPE" speedFactor="1.01" duration="570.00" waitingTime="446.00" timeLoss="31.34" traveltime="124.00">
        <ride waitingTime="446.00" vehicle="t_0" depart="2032.00" arrival="2156.00" arrivalPos="83.20" duration="124.00" routeLength="361.48" timeLoss="31.34"/>
    </personinfo>
    <personinfo id="20" depart="1953.00" type="DEFAULT_PEDTYPE" speedFactor="1.19" duration="296.00" waitingTime="168.00" timeLoss="39.21" traveltime="128.00">
        <ride waitingTime="168.00" vehicle="t_1" depart="2121.00" arrival="2249.00" arrivalPos="83.20" duration="128.00" routeLength="266.17" timeLoss="39.21"/>
    </personinfo>
    <personinfo id="21" depart="2159.00" type="DEFAULT_PEDTYPE" speedFactor="0.97" duration="134.00" waitingTime="38.00" timeLoss="7.72" traveltime="96.00">
        <ride waitingTime="38.00" vehicle="t_0" depart="2197.00" arrival="2293.00" arrivalPos="0.20" duration="96.00" routeLength="299.96" timeLoss="7.72"/>
    </personinfo>
    <personinfo id="22" depart="2182.00" type="DEFAULT_PEDTYPE" speedFactor="0.82" duration="242.00" waitingTime="102.00" timeLoss="38.24" traveltime="140.00">
        <ride waitingTime="102.00" vehicle="t_1" depart="2284.00" arrival="2424.00" arrivalPos="83.20" duration="140.00" routeLength="476.07" timeLoss="38.24"/>
    </personinfo>
    <personinfo id="23" depart="2390.00" type="DEFAULT_PEDTYPE" speedFactor="1.07" duration="240.00" waitingTime="48.00" timeLoss="56.84" traveltime="192.00">
        <ride waitingTime="48.00" vehicle="t_0" depart="2438.00" arrival="2630.00" arrivalPos="83.20" duration="192.00" routeLength="577.43" timeLoss="56.84"/>
    </personinfo>
    <personinfo id="24" depart="2470.00" type="DEFAULT_PEDTYPE" speedFactor="1.02" duration="225.00" waitingTime="123.00" timeLoss="9.13" traveltime="102.00">
        <ride waitingTime="123.00" vehicle="t_1" depart="2593.00" arrival="2695.00" arrivalPos="79.20" duration="102.00" routeLength="352.22" timeLoss="9.13"/>
    </personinfo>
    <personinfo id="25" depart="2496.00" type="DEFAULT_PEDTYPE" speedFactor="0.96" duration="334.00" waitingTime="220.00" timeLoss="18.11" traveltime="114.00">
        <ride waitingTime="220.00" vehicle="t_0" depart="2716.00" arrival="2830.00" arrivalPos="0.20" duration="114.00" routeLength="287.47" timeLoss="18.11"/>
    </personinfo>
    <personinfo id="28" depart="2841.00" type="DEFAULT_PEDTYPE" speedFactor="0.91" duration="185.00" waitingTime="45.00" timeLoss="38.74" traveltime="140.00">
        <ride waitingTime="45.00" vehicle="t_1" depart="2886.00" arrival="3026.00" arrivalPos="79.20" duration="140.00" routeLength="434.43" timeLoss="38.74"/>
    </personinfo>
    <personinfo id="26" depart="2568.00" type="DEFAULT_PEDTYPE" speedFactor="0.96" duration="505.00" waitingTime="364.00" timeLoss="40.54" traveltime="141.00">
        <ride waitingTime="364.00" vehicle="t_0" depart="2932.00" arrival="3073.00" arrivalPos="79.20" duration="141.00" routeLength="453.07" timeLoss="40.54"/>
    </personinfo>
    <personinfo id="29" depart="2865.00" type="DEFAULT_PEDTYPE" speedFactor="1.05" duration="281.00" waitingTime="21.00" timeLoss="76.05" traveltime="260.00">
        <ride waitingTime="21.00" vehicle="t_1" depart="2886.00" arrival="3146.00" arrivalPos="83.20" duration="260.00" routeLength="622.30" timeLoss="76.05"/>
    </personinfo>
    <personinfo id="27" depart="2760.00" type="DEFAULT_PEDTYPE" speedFactor="1.12" duration="526.00" waitingTime="397.00" timeLoss="31.74" traveltime="129.00">
        <ride waitingTime="397.00" vehicle="t_0" depart="3157.00" arrival="3286.00" arrivalPos="78.65" duration="129.00" routeLength="386.49" timeLoss="31.74"/>
    </personinfo>
    <personinfo id="30" depart="3067.00" type="DEFAULT_PEDTYPE" speedFactor="1.21" duration="273.00" waitingTime="100.00" timeLoss="21.12" traveltime="173.00">
        <ride waitingTime="100.00" vehicle="t_1" depart="3167.00" arrival="3340.00" arrivalPos="78.65" duration="173.00" routeLength="449.71" timeLoss="21.12"/>
    </personinfo>
    <personinfo id="32" depart="3175.00" type="DEFAULT_PEDTYPE" speedFactor="1.14" duration="366.00" waitingTime="197.00" timeLoss="72.62" traveltime="169.00">
        <ride waitingTime="197.00" vehicle="t_1" depart="3372.00" arrival="3541.00" arrivalPos="78.65" duration="169.00" routeLength="368.79" timeLoss="72.62"/>
    </personinfo>
    <personinfo id="31" depart="3148.00" type="DEFAULT_PEDTYPE" speedFactor="0.99" duration="482.00" waitingTime="308.00" timeLoss="51.43" traveltime="174.00">
        <ride waitingTime="308.00" vehicle="t_0" depart="3456.00" arrival="3630.00" arrivalPos="78.65" duration="174.00" routeLength="264.87" timeLoss="51.43"/>
    </personinfo>
    <personinfo id="33" depart="3244.00" type="DEFAULT_PEDTYPE" speedFactor="1.00" duration="566.00" waitingTime="417.00" timeLoss="43.83" traveltime="149.00">
        <ride waitingTime="417.00" vehicle="t_1" depart="3661.00" arrival="3810.00" arrivalPos="78.65" duration="149.00" routeLength="439.71" timeLoss="43.83"/>
    </personinfo>
    <personinfo id="34" depart="3270.00" type="DEFAULT_PEDTYPE" speedFactor="1.09" duration="686.00" waitingTime="421.00" timeLoss="83.85" traveltime="265.00">
        <ride waitingTime="421.00" vehicle="t_1" depart="3691.00" arrival="3956.00" arrivalPos="83.20" duration="265.00" routeLength="572.40" timeLoss="83.85"/>
    </personinfo>
    <personinfo id="37" depart="3780.00" type="DEFAULT_PEDTYPE" speedFactor="0.99" duration="297.00" waitingTime="123.00" timeLoss="50.45" traveltime="174.00">
        <ride waitingTime="123.00" vehicle="t_0" depart="3903.00" arrival="4077.00" arrivalPos="83.20" duration="174.00" routeLength="790.02" timeLoss="50.45"/>
    </personinfo>
    <personinfo id="36" depart="3566.00" type="DEFAULT_PEDTYPE" speedFactor="1.05" duration="602.00" waitingTime="131.00" timeLoss="142.66" traveltime="471.00">
        <ride waitingTime="131.00" vehicle="t_0" depart="3697.00" arrival="4168.00" arrivalPos="78.65" duration="471.00" routeLength="1831.23" timeLoss="142.66"/>
    </personinfo>
    <personinfo id="35" depart="3346.00" type="DEFAULT_PEDTYPE" speedFactor="0.96" duration="833.00" waitingTime="712.00" timeLoss="34.59" traveltime="121.00">
        <ride waitingTime="712.00" vehicle="t_1" depart="4058.00" arrival="4179.00" arrivalPos="79.20" duration="121.00" routeLength="261.05" timeLoss="34.59"/>
    </personinfo>
    <personinfo id="38" depart="3965.00" type="DEFAULT_PEDTYPE" speedFactor="0.78" duration="473.00" waitingTime="300.00" timeLoss="85.76" traveltime="173.00">
        <ride waitingTime="300.00" vehicle="t_1" depart="4265.00" arrival="4438.00" arrivalPos="79.20" duration="173.00" routeLength="280.69" timeLoss="85.76"/>
    </personinfo>
    <personinfo id="41" depart="4333.00" type="DEFAULT_PEDTYPE" speedFactor="1.11" duration="197.00" waitingTime="57.00" timeLoss="9.63" traveltime="140.00">
        <ride waitingTime="57.00" vehicle="t_0" depart="4390.00" arrival="4530.00" arrivalPos="0.20" duration="140.00" routeLength="290.25" timeLoss="9.63"/>
    </personinfo>
    <personinfo id="39" depart="4044.00" type="DEFAULT_PEDTYPE" speedFactor="0.98" duration="530.00" waitingTime="426.00" timeLoss="18.05" traveltime="104.00">
        <ride waitingTime="426.00" vehicle="t_1" depart="4470.00" arrival="4574.00" arrivalPos="83.20" duration="104.00" routeLength="262.19" timeLoss="18.05"/>
    </personinfo>
    <personinfo id="43" depart="4438.00" type="DEFAULT_PEDTYPE" speedFactor="0.95" duration="312.00" waitingTime="168.00" timeLoss="22.24" traveltime="144.00">
        <ride waitingTime="168.00" vehicle="t_0" depart="4606.00" arrival="4750.00" arrivalPos="79.20" duration="144.00" routeLength="206.87" timeLoss="22.24"/>
    </personinfo>
    <personinfo id="40" depart="4118.00" type="DEFAULT_PEDTYPE" speedFactor="1.17" duration="666.00" waitingTime="499.00" timeLoss="59.06" traveltime="167.00">
        <ride waitingTime="499.00" vehicle="t_1" depart="4617.00" arrival="4784.00" arrivalPos="0.20" duration="167.00" routeLength="456.58" timeLoss="59.06"/>
    </personinfo>
    <personinfo id="42" depart="4358.00" type="DEFAULT_PEDTYPE" speedFactor="0.96" duration="577.00" waitingTime="339.00" timeLoss="59.32" traveltime="238.00">
        <ride waitingTime="339.00" vehicle="t_1" depart="4697.00" arrival="4935.00" arrivalPos="78.65" duration="238.00" routeLength="564.40" timeLoss="59.32"/>
    </personinfo>
    <personinfo id="44" depart="4461.00" type="DEFAULT_PEDTYPE" speedFactor="1.11" duration="495.00" waitingTime="361.00" timeLoss="32.01" traveltime="134.00">
        <ride waitingTime="361.00" vehicle="t_0" depart="4822.00" arrival="4956.00" arrivalPos="78.65" duration="134.00" routeLength="464.28" timeLoss="32.01"/>
    </personinfo>
    <personinfo id="47" depart="4953.00" type="DEFAULT_PEDTYPE" speedFactor="0.94" duration="207.00" waitingTime="18.00" timeLoss="60.26" traveltime="189.00">
        <ride waitingTime="18.00" vehicle="t_1" depart="4971.00" arrival="5160.00" arrivalPos="83.20" duration="189.00" routeLength="372.91" timeLoss="60.26"/>
    </personinfo>
    <personinfo id="45" depart="4680.00" type="DEFAULT_PEDTYPE" speedFactor="0.85" duration="570.00" waitingTime="369.00" timeLoss="93.45" traveltime="201.00">
        <ride waitingTime="369.00" vehicle="t_0" depart="5049.00" arrival="5250.00" arrivalPos="83.20" duration="201.00" routeLength="553.39" timeLoss="93.45"/>
    </personinfo>
    <personinfo id="48" depart="5024.00" type="DEFAULT_PEDTYPE" speedFactor="0.99" duration="319.00" waitingTime="215.00" timeLoss="9.48" traveltime="104.00">
        <ride waitingTime="215.00" vehicle="t_1" depart="5239.00" arrival="5343.00" arrivalPos="79.20" duration="104.00" routeLength="340.08" timeLoss="9.48"/>
    </personinfo>
    <personinfo id="46" depart="4872.00" type="DEFAULT_PEDTYPE" speedFactor="0.86" duration="551.00" waitingTime="453.00" timeLoss="5.91" traveltime="98.00">
        <ride waitingTime="453.00" vehicle="t_0" depart="5325.00" arrival="5423.00" arrivalPos="0.20" duration="98.00" routeLength="314.71" timeLoss="5.91"/>
    </personinfo>
    <personinfo id="49" depart="5047.00" type="DEFAULT_PEDTYPE" speedFactor="0.89" duration="532.00" waitingTime="423.00" timeLoss="14.16" traveltime="109.00">
        <ride waitingTime="423.00" vehicle="t_0" depart="5470.00" arrival="5579.00" arrivalPos="78.65" duration="109.00" routeLength="376.47" timeLoss="14.16"/>
    </personinfo>
    <personinfo id="51" depart="5098.00" type="DEFAULT_PEDTYPE" speedFactor="1.03" duration="512.00" waitingTime="285.00" timeLoss="59.15" traveltime="227.00">
        <ride waitingTime="285.00" vehicle="t_1" depart="5383.00" arrival="5610.00" arrivalPos="79.20" duration="227.00" routeLength="1028.00" timeLoss="59.15"/>
    </personinfo>
    <personinfo id="50" depart="5075.00" type="DEFAULT_PEDTYPE" speedFactor="0.95" duration="611.00" waitingTime="396.00" timeLoss="23.18" traveltime="215.00">
        <ride waitingTime="396.00" vehicle="t_1" depart="5471.00" arrival="5686.00" arrivalPos="83.20" duration="215.00" routeLength="557.07" timeLoss="23.18"/>
    </personinfo>
    <personinfo id="53" depart="5149.00" type="DEFAULT_PEDTYPE" speedFactor="1.03" duration="699.00" waitingTime="617.00" timeLoss="3.06" traveltime="82.00">
        <ride waitingTime="617.00" vehicle="t_0" depart="5766.00" arrival="5848.00" arrivalPos="78.65" duration="82.00" routeLength="162.26" timeLoss="3.06"/>
    </personinfo>
    <personinfo id="55" depart="5543.00" type="DEFAULT_PEDTYPE" speedFactor="0.90" duration="421.00" waitingTime="200.00" timeLoss="96.64" traveltime="221.00">
        <ride waitingTime="200.00" vehicle="t_1" depart="5743.00" arrival="5964.00" arrivalPos="78.65" duration="221.00" routeLength="638.57" timeLoss="96.64"/>
    </personinfo>
    <personinfo id="52" depart="5122.00" type="DEFAULT_PEDTYPE" speedFactor="1.02" duration="904.00" waitingTime="555.00" timeLoss="138.06" traveltime="349.00">
        <ride waitingTime="555.00" vehicle="t_0" depart="5677.00" arrival="6026.00" arrivalPos="78.65" duration="349.00" routeLength="928.17" timeLoss="138.06"/>
    </personinfo>
    <personinfo id="57" depart="5680.00" type="DEFAULT_PEDTYPE" speedFactor="1.06" duration="362.00" waitingTime="179.00" timeLoss="14.68" traveltime="183.00">
        <ride waitingTime="179.00" vehicle="t_1" depart="5859.00" arrival="6042.00" arrivalPos="0.20" duration="183.00" routeLength="440.21" timeLoss="14.68"/>
    </personinfo>
    <personinfo id="54" depart="5337.00" type="DEFAULT_PEDTYPE" speedFactor="1.02" duration="853.00" waitingTime="761.00" timeLoss="3.11" traveltime="92.00">
        <ride waitingTime="761.00" vehicle="t_0" depart="6098.00" arrival="6190.00" arrivalPos="83.20" duration="92.00" routeLength="164.05" timeLoss="3.11"/>
    </personinfo>
    <personinfo id="56" depart="5612.00" type="DEFAULT_PEDTYPE" speedFactor="1.04" duration="650.00" waitingTime="470.00" timeLoss="58.57" traveltime="180.00">
        <ride waitingTime="470.00" vehicle="t_1" depart="6082.00" arrival="6262.00" arrivalPos="83.20" duration="180.00" routeLength="663.46" timeLoss="58.57"/>
    </personinfo>
    <personinfo id="60" depart="6120.00" type="DEFAULT_PEDTYPE" speedFactor="1.05" duration="260.00" waitingTime="122.00" timeLoss="11.05" traveltime="138.00">
        <ride waitingTime="122.00" vehicle="t_0" depart="6242.00" arrival="6380.00" arrivalPos="0.20" duration="138.00" routeLength="176.31" timeLoss="11.05"/>
    </personinfo>
    <personinfo id="58" depart="5869.00" type="DEFAULT_PEDTYPE" speedFactor="1.10" duration="576.00" waitingTime="312.00" timeLoss="66.72" traveltime="264.00">
        <ride waitingTime="312.00" vehicle="t_1" depart="6181.00" arrival="6445.00" arrivalPos="83.20" duration="264.00" routeLength="761.81" timeLoss="66.72"/>
    </personinfo>
    <personinfo id="59" depart="6051.00" type="DEFAULT_PEDTYPE" speedFactor="0.69" duration="549.00" waitingTime="309.00" timeLoss="41.74" traveltime="240.00">
        <ride waitingTime="309.00" vehicle="t_1" depart="6360.00" arrival="6600.00" arrivalPos="83.20" duration="240.00" routeLength="863.95" timeLoss="41.74"/>
    </personinfo>
    <personinfo id="61" depart="6319.00" type="DEFAULT_PEDTYPE" speedFactor="0.94" duration="290.00" waitingTime="150.00" timeLoss="39.32" traveltime="140.00">
        <ride waitingTime="150.00" vehicle="t_0" depart="6469.00" arrival="6609.00" arrivalPos="83.20" duration="140.00" routeLength="457.22" timeLoss="39.32"/>
    </personinfo>
    <personinfo id="63" depart="6608.00" type="DEFAULT_PEDTYPE" speedFactor="1.09" duration="194.00" waitingTime="22.00" timeLoss="70.81" traveltime="172.00">
        <ride waitingTime="22.00" vehicle="t_1" depart="6630.00" arrival="6802.00" arrivalPos="78.65" duration="172.00" routeLength="452.10" timeLoss="70.81"/>
    </personinfo>
    <personinfo id="62" depart="6536.00" type="DEFAULT_PEDTYPE" speedFactor="1.07" duration="284.00" waitingTime="113.00" timeLoss="47.31" traveltime="171.00">
        <ride waitingTime="113.00" vehicle="t_0" depart="6649.00" arrival="6820.00" arrivalPos="83.20" duration="171.00" routeLength="350.24" timeLoss="47.31"/>
    </personinfo>
    <personinfo id="64" depart="6678.00" type="DEFAULT_PEDTYPE" speedFactor="1.03" duration="342.00" waitingTime="195.00" timeLoss="8.80" traveltime="147.00">
        <ride waitingTime="195.00" vehicle="t_0" depart="6873.00" arrival="7020.00" arrivalPos="79.20" duration="147.00" routeLength="376.17" timeLoss="8.80"/>
    </personinfo>
    <personinfo id="65" depart="6751.00" type="DEFAULT_PEDTYPE" speedFactor="0.95" duration="402.00" waitingTime="306.00" timeLoss="7.49" traveltime="96.00">
        <ride waitingTime="306.00" vehicle="t_0" depart="7057.00" arrival="7153.00" arrivalPos="79.20" duration="96.00" routeLength="305.39" timeLoss="7.49"/>
    </personinfo>
    <personinfo id="66" depart="6933.00" type="DEFAULT_PEDTYPE" speedFactor="1.14" duration="257.00" waitingTime="109.00" timeLoss="11.86" traveltime="148.00">
        <ride waitingTime="109.00" vehicle="t_1" depart="7042.00" arrival="7190.00" arrivalPos="78.65" duration="148.00" routeLength="344.98" timeLoss="11.86"/>
    </personinfo>
    <personinfo id="67" depart="6956.00" type="DEFAULT_PEDTYPE" speedFactor="0.78" duration="414.00" waitingTime="296.00" timeLoss="7.71" traveltime="118.00">
        <ride waitingTime="296.00" vehicle="t_0" depart="7252.00" arrival="7370.00" arrivalPos="79.20" duration="118.00" routeLength="246.31" timeLoss="7.71"/>
    </personinfo>
    <personinfo id="71" depart="7304.00" type="DEFAULT_PEDTYPE" speedFactor="1.02" duration="197.00" waitingTime="97.00" timeLoss="19.01" traveltime="100.00">
        <ride waitingTime="97.00" vehicle="t_0" depart="7401.00" arrival="7501.00" arrivalPos="83.20" duration="100.00" routeLength="199.35" timeLoss="19.01"/>
    </personinfo>
    <personinfo id="68" depart="6979.00" type="DEFAULT_PEDTYPE" speedFactor="0.93" duration="531.00" waitingTime="329.00" timeLoss="8.02" traveltime="202.00">
        <ride waitingTime="329.00" vehicle="t_1" depart="7308.00" arrival="7510.00" arrivalPos="79.20" duration="202.00" routeLength="376.32" timeLoss="8.02"/>
    </personinfo>
    <personinfo id="69" depart="7049.00" type="DEFAULT_PEDTYPE" speedFactor="0.94" duration="567.00" waitingTime="470.00" timeLoss="5.99" traveltime="97.00">
        <ride waitingTime="470.00" vehicle="t_1" depart="7519.00" arrival="7616.00" arrivalPos="78.65" duration="97.00" routeLength="299.43" timeLoss="5.99"/>
    </personinfo>
    <personinfo id="76" depart="7521.00" type="DEFAULT_PEDTYPE" speedFactor="1.08" duration="168.00" waitingTime="60.00" timeLoss="22.20" traveltime="108.00">
        <ride waitingTime="60.00" vehicle="t_0" depart="7581.00" arrival="7689.00" arrivalPos="83.20" duration="108.00" routeLength="253.84" timeLoss="22.20"/>
    </personinfo>
    <personinfo id="70" depart="7120.00" type="DEFAULT_PEDTYPE" speedFactor="1.03" duration="700.00" waitingTime="515.00" timeLoss="33.30" traveltime="185.00">
        <ride waitingTime="515.00" vehicle="t_1" depart="7635.00" arrival="7820.00" arrivalPos="83.20" duration="185.00" routeLength="442.73" timeLoss="33.30"/>
    </personinfo>
    <personinfo id="72" depart="7332.00" type="DEFAULT_PEDTYPE" speedFactor="0.85" duration="690.00" waitingTime="551.00" timeLoss="30.03" traveltime="139.00">
        <ride waitingTime="551.00" vehicle="t_1" depart="7883.00" arrival="8022.00" arrivalPos="83.20" duration="139.00" routeLength="445.34" timeLoss="30.03"/>
    </personinfo>
    <personinfo id="79" depart="7953.00" type="DEFAULT_PEDTYPE" speedFactor="0.96" duration="193.00" waitingTime="118.00" timeLoss="3.02" traveltime="75.00">
        <ride waitingTime="118.00" vehicle="t_0" depart="8071.00" arrival="8146.00" arrivalPos="78.65" duration="75.00" routeLength="94.98" timeLoss="3.02"/>
    </personinfo>
    <personinfo id="73" depart="7355.00" type="DEFAULT_PEDTYPE" speedFactor="1.07" duration="875.00" waitingTime="574.00" timeLoss="37.77" traveltime="301.00">
        <ride waitingTime="574.00" vehicle="t_1" depart="7929.00" arrival="8230.00" arrivalPos="83.20" duration="301.00" routeLength="1017.72" timeLoss="37.77"/>
    </personinfo>
    <personinfo id="80" depart="7976.00" type="DEFAULT_PEDTYPE" speedFactor="1.05" duration="304.00" waitingTime="177.00" timeLoss="7.59" traveltime="127.00">
        <ride waitingTime="177.00" vehicle="t_0" depart="8153.00" arrival="8280.00" arrivalPos="79.20" duration="127.00" routeLength="372.72" timeLoss="7.59"/>
    </personinfo>
    <personinfo id="74" depart="7382.00" type="DEFAULT_PEDTYPE" speedFactor="1.11" duration="972.00" waitingTime="698.00" timeLoss="45.71" traveltime="274.00">
        <ride waitingTime="698.00" vehicle="t_1" depart="8080.00" arrival="8354.00" arrivalPos="78.65" duration="274.00" routeLength="637.01" timeLoss="45.71"/>
    </personinfo>
    <personinfo id="82" depart="8185.00" type="DEFAULT_PEDTYPE" speedFactor="1.19" duration="195.00" waitingTime="104.00" timeLoss="6.31" traveltime="91.00">
        <ride waitingTime="104.00" vehicle="t_0" depart="8289.00" arrival="8380.00" arrivalPos="0.20" duration="91.00" routeLength="278.61" timeLoss="6.31"/>
    </personinfo>
    <personinfo id="83" depart="8210.00" type="DEFAULT_PEDTYPE" speedFactor="1.03" duration="287.00" waitingTime="181.00" timeLoss="20.67" traveltime="106.00">
        <ride waitingTime="181.00" vehicle="t_0" depart="8391.00" arrival="8497.00" arrivalPos="79.20" duration="106.00" routeLength="271.44" timeLoss="20.67"/>
    </personinfo>
    <personinfo id="75" depart="7449.00" type="DEFAULT_PEDTYPE" speedFactor="1.10" duration="1050.00" waitingTime="936.00" timeLoss="24.85" traveltime="114.00">
        <ride waitingTime="936.00" vehicle="t_1" depart="8385.00" arrival="8499.00" arrivalPos="79.20" duration="114.00" routeLength="306.12" timeLoss="24.85"/>
    </personinfo>
    <personinfo id="77" depart="7727.00" type="DEFAULT_PEDTYPE" speedFactor="1.06" duration="955.00" waitingTime="381.00" timeLoss="109.75" traveltime="574.00">
        <ride waitingTime="381.00" vehicle="t_1" depart="8108.00" arrival="8682.00" arrivalPos="83.20" duration="574.00" routeLength="1831.46" timeLoss="109.75"/>
    </personinfo>
    <personinfo id="84" depart="8413.00" type="DEFAULT_PEDTYPE" speedFactor="1.12" duration="296.00" waitingTime="105.00" timeLoss="52.96" traveltime="191.00">
        <ride waitingTime="105.00" vehicle="t_0" depart="8518.00" arrival="8709.00" arrivalPos="78.65" duration="191.00" routeLength="890.31" timeLoss="52.96"/>
    </personinfo>
    <personinfo id="81" depart="8162.00" type="DEFAULT_PEDTYPE" speedFactor="1.03" duration="663.00" waitingTime="397.00" timeLoss="65.22" traveltime="266.00">
        <ride waitingTime="397.00" vehicle="t_1" depart="8559.00" arrival="8825.00" arrivalPos="78.65" duration="266.00" routeLength="829.04" timeLoss="65.22"/>
    </personinfo>
    <personinfo id="85" depart="8491.00" type="DEFAULT_PEDTYPE" speedFactor="1.00" duration="369.00" waitingTime="110.00" timeLoss="10.51" traveltime="259.00">
        <ride waitingTime="110.00" vehicle="t_0" depart="8601.00" arrival="8860.00" arrivalPos="0.20" duration="259.00" routeLength="466.26" timeLoss="10.51"/>
    </personinfo>