<?xml version="1.0" encoding="UTF-8"?>

<!-- generated on 2026-03-28T14:47:58.754457+08:00 by Eclipse SUMO sumo 1.26.0
<sumoConfiguration xmlns:xsi="http://www.w3.org/2001/XMLSchema-instance" xsi:noNamespaceSchemaLocation="http://sumo.dlr.de/xsd/sumoConfiguration.xsd">

    <input>
        <net-file value="D:\FYP\DQNVersion1\SmallTestingMap\map.net.xml"/>
        <route-files value="D:\FYP\DQNVersion1\SmallTestingMap\map.rou.xml,D:\FYP\DQNVersion1\SmallTestingMap\persontrips_scale.rou.xml"/>
    </input>

    <output>
        <tripinfo-output value="D:\FYP\DQNVersion1\SmallTestingMap\tripinfos.xml"/>
        <stop-output value="D:\FYP\DQNVersion1\SmallTestingMap\stopinfos.xml"/>
        <statistic-output value="D:\FYP\DQNVersion1\SmallTestingMap\stats.xml"/>
    </output>

    <time>
        <step-length value="1.0"/>
    </time>

    <report>
        <verbose value="true"/>
        <duration-log.statistics value="true"/>
        <no-step-log value="true"/>
    </report>

    <taxi_device>
        <device.taxi.dispatch-algorithm value="traci"/>
    </taxi_device>

    <traci_server>
        <remote-port value="53790"/>
    </traci_server>

</sumoConfiguration>
-->

<tripinfos xmlns:xsi="http://www.w3.org/2001/XMLSchema-instance" xsi:noNamespaceSchemaLocation="http://sumo.dlr.de/xsd/tripinfo_file.xsd">
    <personinfo id="1" depart="24.00" type="DEFAULT_PEDTYPE" speedFactor="1.08" duration="240.00" waitingTime="71.00" timeLoss="60.14" traveltime="169.00">
        <ride waitingTime="71.00" vehicle="t_1" depart="95.00" arrival="264.00" arrivalPos="83.20" duration="169.00" routeLength="551.75" timeLoss="60.14"/>
    </personinfo>
    <personinfo id="0" depart="0.00" type="DEFAULT_PEDTYPE" speedFactor="1.01" duration="367.00" waitingTime="61.00" timeLoss="78.23" traveltime="306.00">
        <ride waitingTime="61.00" vehicle="t_1" depart="61.00" arrival="367.00" arrivalPos="0.20" duration="306.00" routeLength="1167.41" timeLoss="78.23"/>
    </personinfo>
    <personinfo id="2" depart="234.00" type="DEFAULT_PEDTYPE" speedFactor="1.12" duration="145.00" waitingTime="53.00" timeLoss="7.10" traveltime="92.00">
        <ride waitingTime="53.00" vehicle="t_0" depart="287.00" arrival="379.00" arrivalPos="0.20" duration="92.00" routeLength="278.79" timeLoss="7.10"/>
    </personinfo>
    <personinfo id="3" depart="431.00" type="DEFAULT_PEDTYPE" speedFactor="0.90" duration="160.00" waitingTime="78.00" timeLoss="3.02" traveltime="82.00">
        <ride waitingTime="78.00" vehicle="t_0" depart="509.00" arrival="591.00" arrivalPos="0.20" duration="82.00" routeLength="178.06" timeLoss="3.02"/>
    </personinfo>
    <personinfo id="4" depart="454.00" type="DEFAULT_PEDTYPE" speedFactor="0.88" duration="280.00" waitingTime="195.00" timeLoss="6.05" traveltime="85.00">
        <ride waitingTime="195.00" vehicle="t_0" depart="649.00" arrival="734.00" arrivalPos="0.20" duration="85.00" routeLength="199.95" timeLoss="6.05"/>
    </personinfo>
    <personinfo id="5" depart="642.00" type="DEFAULT_PEDTYPE" speedFactor="1.03" duration="275.00" waitingTime="174.00" timeLoss="9.11" traveltime="101.00">
        <ride waitingTime="174.00" vehicle="t_0" depart="816.00" arrival="917.00" arrivalPos="0.20" duration="101.00" routeLength="318.71" timeLoss="9.11"/>
    </personinfo>
    <personinfo id="7" depart="919.00" type="DEFAULT_PEDTYPE" speedFactor="0.91" duration="138.00" waitingTime="42.00" timeLoss="7.59" traveltime="96.00">
        <ride waitingTime="42.00" vehicle="t_0" depart="961.00" arrival="1057.00" arrivalPos="78.65" duration="96.00" routeLength="275.61" timeLoss="7.59"/>
    </personinfo>
    <personinfo id="10" depart="991.00" type="DEFAULT_PEDTYPE" speedFactor="0.98" duration="272.00" waitingTime="141.00" timeLoss="30.92" traveltime="131.00">
        <ride waitingTime="141.00" vehicle="t_1" depart="1132.00" arrival="1263.00" arrivalPos="79.20" duration="131.00" routeLength="450.84" timeLoss="30.92"/>
    </personinfo>
    <personinfo id="12" depart="1266.00" type="DEFAULT_PEDTYPE" speedFactor="0.94" duration="174.00" waitingTime="89.00" timeLoss="4.49" traveltime="85.00">
        <ride waitingTime="89.00" vehicle="t_0" depart="1355.00" arrival="1440.00" arrivalPos="0.20" duration="85.00" routeLength="178.53" timeLoss="4.49"/>
    </personinfo>
    <personinfo id="6" depart="839.00" type="DEFAULT_PEDTYPE" speedFactor="1.06" duration="614.00" waitingTime="19.00" timeLoss="213.26" traveltime="595.00">
        <ride waitingTime="19.00" vehicle="t_1" depart="858.00" arrival="1453.00" arrivalPos="83.20" duration="595.00" routeLength="2042.31" timeLoss="213.26"/>
    </personinfo>
    <personinfo id="9" depart="968.00" type="DEFAULT_PEDTYPE" speedFactor="1.03" duration="689.00" waitingTime="76.00" timeLoss="209.59" traveltime="613.00">
        <ride waitingTime="76.00" vehicle="t_1" depart="1044.00" arrival="1657.00" arrivalPos="83.20" duration="613.00" routeLength="2444.83" timeLoss="209.59"/>
    </personinfo>
    <personinfo id="13" depart="1291.00" type="DEFAULT_PEDTYPE" speedFactor="0.93" duration="377.00" waitingTime="255.00" timeLoss="20.41" traveltime="122.00">
        <ride waitingTime="255.00" vehicle="t_0" depart="1546.00" arrival="1668.00" arrivalPos="78.65" duration="122.00" routeLength="378.72" timeLoss="20.41"/>
    </personinfo>
    <personinfo id="15" depart="1533.00" type="DEFAULT_PEDTYPE" speedFactor="0.85" duration="307.00" waitingTime="49.00" timeLoss="80.12" traveltime="258.00">
        <ride waitingTime="49.00" vehicle="t_0" depart="1582.00" arrival="1840.00" arrivalPos="78.65" duration="258.00" routeLength="598.83" timeLoss="80.12"/>
    </personinfo>
    <personinfo id="14" depart="1507.00" type="DEFAULT_PEDTYPE" speedFactor="0.89" duration="432.00" waitingTime="48.00" timeLoss="112.92" traveltime="384.00">
        <ride waitingTime="48.00" vehicle="t_1" depart="1555.00" arrival="1939.00" arrivalPos="78.65" duration="384.00" routeLength="1484.52" timeLoss="112.92"/>
    </personinfo>
    <personinfo id="8" depart="945.00" type="DEFAULT_PEDTYPE" speedFactor="1.00" duration="1084.00" waitingTime="785.00" timeLoss="72.00" traveltime="299.00">
        <ride waitingTime="785.00" vehicle="t_1" depart="1730.00" arrival="2029.00" arrivalPos="83.20" duration="299.00" routeLength="999.69" timeLoss="72.00"/>
    </personinfo>
    <personinfo id="16" depart="1559.00" type="DEFAULT_PEDTYPE" speedFactor="0.95" duration="541.00" waitingTime="400.00" timeLoss="50.32" traveltime="141.00">
        <ride waitingTime="400.00" vehicle="t_0" depart="1959.00" arrival="2100.00" arrivalPos="79.20" duration="141.00" routeLength="318.33" timeLoss="50.32"/>
    </personinfo>
    <personinfo id="17" depart="1586.00" type="DEFAULT_PEDTYPE" speedFactor="0.92" duration="658.00" waitingTime="539.00" timeLoss="26.82" traveltime="119.00">
        <ride waitingTime="539.00" vehicle="t_0" depart="2125.00" arrival="2244.00" arrivalPos="83.20" duration="119.00" routeLength="361.45" timeLoss="26.82"/>
    </personinfo>
    <personinfo id="18" depart="1663.00" type="DEFAULT_PEDTYPE" speedFactor="0.80" duration="817.00" waitingTime="146.00" timeLoss="180.33" traveltime="671.00">
        <ride waitingTime="146.00" vehicle="t_1" depart="1809.00" arrival="2480.00" arrivalPos="83.20" duration="671.00" routeLength="2086.73" timeLoss="180.33"/>
    </personinfo>
    <personinfo id="22" depart="2182.00" type="DEFAULT_PEDTYPE" speedFactor="1.01" duration="538.00" waitingTime="85.00" timeLoss="116.43" traveltime="453.00">
        <ride waitingTime="85.00" vehicle="t_1" depart="2267.00" arrival="2720.00" arrivalPos="83.20" duration="453.00" routeLength="1045.13" timeLoss="116.43"/>
    </personinfo>
    <personinfo id="21" depart="2159.00" type="DEFAULT_PEDTYPE" speedFactor="1.01" duration="872.00" waitingTime="637.00" timeLoss="72.14" traveltime="235.00">
        <ride waitingTime="637.00" vehicle="t_1" depart="2796.00" arrival="3031.00" arrivalPos="0.20" duration="235.00" routeLength="708.99" timeLoss="72.14"/>
    </personinfo>
    <personinfo id="19" depart="1736.00" type="DEFAULT_PEDTYPE" speedFactor="0.95" duration="1418.00" waitingTime="1017.00" timeLoss="104.49" traveltime="401.00">
        <ride waitingTime="1017.00" vehicle="t_1" depart="2753.00" arrival="3154.00" arrivalPos="83.20" duration="401.00" routeLength="1401.44" timeLoss="104.49"/>
    </personinfo>
</tripinfos>
