<?xml version="1.0" encoding="UTF-8"?>

<!-- generated on 2026-03-30T17:43:18.189645+08:00 by Eclipse SUMO sumo 1.26.0
<sumoConfiguration xmlns:xsi="http://www.w3.org/2001/XMLSchema-instance" xsi:noNamespaceSchemaLocation="http://sumo.dlr.de/xsd/sumoConfiguration.xsd">

    <input>
        <net-file value="D:\FYP\DQNVersion1\SmallTestingMap\map.net.xml"/>
        <route-files value="D:\FYP\DQNVersion1\SmallTestingMap\map.rou.xml,D:\FYP\DQNVersion1\SmallTestingMap\persontrips_scale.rou.xml"/>
    </input>

    <output>
        <tripinfo-output value="D:\FYP\DQNVersion1\SmallTestingMap\tripinfos.xml"/>
        <stop-output value="D:\FYP\DQNVersion1\SmallTestingMap\stopinfos.xml"/>
        <statistic-output value="D:\FYP\DQNVersion1\SmallTestingMap\stats.xml"/>
    </output>

    <time>
        <step-length value="1.0"/>
    </time>

    <report>
        <verbose value="true"/>
        <duration-log.statistics value="true"/>
        <no-step-log value="true"/>
    </report>

    <taxi_device>
        <device.taxi.dispatch-algorithm value="traci"/>
        <device.taxi.idle-algorithm value="stop"/>
    </taxi_device>

    <traci_server>
        <remote-port value="51604"/>
    </traci_server>

</sumoConfiguration>
-->

<tripinfos xmlns:xsi="http://www.w3.org/2001/XMLSchema-instance" xsi:noNamespaceSchemaLocation="http://sumo.dlr.de/xsd/tripinfo_file.xsd">
    <personinfo id="0" depart="0.00" type="DEFAULT_PEDTYPE" speedFactor="1.01" duration="155.00" waitingTime="66.00" timeLoss="7.17" traveltime="89.00">
        <ride waitingTime="66.00" vehicle="t_0" depart="66.00" arrival="155.00" arrivalPos="0.20" duration="89.00" routeLength="213.44" timeLoss="7.17"/>
    </personinfo>
    <personinfo id="1" depart="24.00" type="DEFAULT_PEDTYPE" speedFactor="1.08" duration="328.00" waitingTime="155.00" timeLoss="68.14" traveltime="173.00">
        <ride waitingTime="155.00" vehicle="t_0" depart="179.00" arrival="352.00" arrivalPos="83.20" duration="173.00" routeLength="551.77" timeLoss="68.14"/>
    </personinfo>
    <personinfo id="2" depart="234.00" type="DEFAULT_PEDTYPE" speedFactor="1.12" duration="292.00" waitingTime="166.00" timeLoss="41.72" traveltime="126.00">
        <ride waitingTime="166.00" vehicle="t_0" depart="400.00" arrival="526.00" arrivalPos="0.20" duration="126.00" routeLength="278.79" timeLoss="41.72"/>
    </personinfo>
    <personinfo id="3" depart="431.00" type="DEFAULT_PEDTYPE" speedFactor="0.90" duration="279.00" waitingTime="170.00" timeLoss="4.35" traveltime="109.00">
        <ride waitingTime="170.00" vehicle="t_0" depart="601.00" arrival="710.00" arrivalPos="0.20" duration="109.00" routeLength="177.97" timeLoss="4.35"/>
    </personinfo>
    <personinfo id="4" depart="454.00" type="DEFAULT_PEDTYPE" speedFactor="0.88" duration="380.00" waitingTime="289.00" timeLoss="6.22" traveltime="91.00">
        <ride waitingTime="289.00" vehicle="t_0" depart="743.00" arrival="834.00" arrivalPos="0.20" duration="91.00" routeLength="200.02" timeLoss="6.22"/>
    </personinfo>
    <personinfo id="5" depart="642.00" type="DEFAULT_PEDTYPE" speedFactor="1.10" duration="284.00" waitingTime="117.00" timeLoss="10.41" traveltime="167.00">
        <ride waitingTime="117.00" vehicle="t_0" depart="759.00" arrival="926.00" arrivalPos="0.20" duration="167.00" routeLength="315.98" timeLoss="10.41"/>
    </personinfo>
    <personinfo id="6" depart="839.00" type="DEFAULT_PEDTYPE" speedFactor="1.06" duration="204.00" waitingTime="105.00" timeLoss="8.55" traveltime="99.00">
        <ride waitingTime="105.00" vehicle="t_0" depart="944.00" arrival="1043.00" arrivalPos="83.20" duration="99.00" routeLength="338.59" timeLoss="8.55"/>
    </personinfo>
    <personinfo id="7" depart="919.00" type="DEFAULT_PEDTYPE" speedFactor="0.92" duration="146.00" waitingTime="43.00" timeLoss="8.72" traveltime="103.00">
        <ride waitingTime="43.00" vehicle="t_1" depart="962.00" arrival="1065.00" arrivalPos="78.65" duration="103.00" routeLength="275.64" timeLoss="8.72"/>
    </personinfo>
    <personinfo id="8" depart="945.00" type="DEFAULT_PEDTYPE" speedFactor="1.09" duration="197.00" waitingTime="44.00" timeLoss="6.81" traveltime="153.00">
        <ride waitingTime="44.00" vehicle="t_1" depart="989.00" arrival="1142.00" arrivalPos="83.20" duration="153.00" routeLength="175.70" timeLoss="6.81"/>
    </personinfo>
    <personinfo id="9" depart="968.00" type="DEFAULT_PEDTYPE" speedFactor="1.03" duration="286.00" waitingTime="164.00" timeLoss="29.90" traveltime="122.00">
        <ride waitingTime="164.00" vehicle="t_0" depart="1132.00" arrival="1254.00" arrivalPos="83.20" duration="122.00" routeLength="352.21" timeLoss="29.90"/>
    </personinfo>
    <personinfo id="10" depart="991.00" type="DEFAULT_PEDTYPE" speedFactor="1.08" duration="362.00" waitingTime="230.00" timeLoss="31.98" traveltime="132.00">
        <ride waitingTime="230.00" vehicle="t_1" depart="1221.00" arrival="1353.00" arrivalPos="79.20" duration="132.00" routeLength="450.78" timeLoss="31.98"/>
    </personinfo>
    <personinfo id="11" depart="1068.00" type="DEFAULT_PEDTYPE" speedFactor="1.06" duration="292.00" waitingTime="202.00" timeLoss="6.34" traveltime="90.00">
        <ride waitingTime="202.00" vehicle="t_0" depart="1270.00" arrival="1360.00" arrivalPos="78.65" duration="90.00" routeLength="180.10" timeLoss="6.34"/>
    </personinfo>
    <personinfo id="13" depart="1291.00" type="DEFAULT_PEDTYPE" speedFactor="0.96" duration="247.00" waitingTime="120.00" timeLoss="31.01" traveltime="127.00">
        <ride waitingTime="120.00" vehicle="t_0" depart="1411.00" arrival="1538.00" arrivalPos="78.65" duration="127.00" routeLength="391.64" timeLoss="31.01"/>
    </personinfo>
    <personinfo id="12" depart="1266.00" type="DEFAULT_PEDTYPE" speedFactor="1.24" duration="295.00" waitingTime="174.00" timeLoss="6.86" traveltime="121.00">
        <ride waitingTime="174.00" vehicle="t_1" depart="1440.00" arrival="1561.00" arrivalPos="0.20" duration="121.00" routeLength="178.57" timeLoss="6.86"/>
    </personinfo>
    <personinfo id="14" depart="1507.00" type="DEFAULT_PEDTYPE" speedFactor="0.90" duration="222.00" waitingTime="132.00" timeLoss="4.01" traveltime="90.00">
        <ride waitingTime="132.00" vehicle="t_1" depart="1639.00" arrival="1729.00" arrivalPos="78.65" duration="90.00" routeLength="276.22" timeLoss="4.01"/>
    </personinfo>
    <personinfo id="17" depart="1586.00" type="DEFAULT_PEDTYPE" speedFactor="1.06" duration="214.00" waitingTime="25.00" timeLoss="92.19" traveltime="189.00">
        <ride waitingTime="25.00" vehicle="t_0" depart="1611.00" arrival="1800.00" arrivalPos="83.20" duration="189.00" routeLength="361.46" timeLoss="92.19"/>
    </personinfo>
    <personinfo id="15" depart="1533.00" type="DEFAULT_PEDTYPE" speedFactor="0.93" duration="332.00" waitingTime="228.00" timeLoss="7.74" traveltime="104.00">
        <ride waitingTime="228.00" vehicle="t_1" depart="1761.00" arrival="1865.00" arrivalPos="78.65" duration="104.00" routeLength="375.70" timeLoss="7.74"/>
    </personinfo>
    <personinfo id="16" depart="1559.00" type="DEFAULT_PEDTYPE" speedFactor="1.06" duration="436.00" waitingTime="11.00" timeLoss="150.59" traveltime="425.00">
        <ride waitingTime="11.00" vehicle="t_1" depart="1570.00" arrival="1995.00" arrivalPos="4.99" duration="425.00" routeLength="1380.40" timeLoss="150.59"/>
    </personinfo>
    <personinfo id="18" depart="1663.00" type="DEFAULT_PEDTYPE" speedFactor="1.25" duration="400.00" waitingTime="235.00" timeLoss="53.66" traveltime="165.00">
        <ride waitingTime="235.00" vehicle="t_0" depart="1898.00" arrival="2063.00" arrivalPos="83.20" duration="165.00" routeLength="577.45" timeLoss="53.66"/>
    </personinfo>
    <personinfo id="20" depart="1953.00" type="DEFAULT_PEDTYPE" speedFactor="0.81" duration="137.00" waitingTime="43.00" timeLoss="5.54" traveltime="94.00">
        <ride waitingTime="43.00" vehicle="t_1" depart="1996.00" arrival="2090.00" arrivalPos="83.20" duration="94.00" routeLength="266.10" timeLoss="5.54"/>
    </personinfo>
    <personinfo id="19" depart="1736.00" type="DEFAULT_PEDTYPE" speedFactor="1.06" duration="503.00" waitingTime="162.00" timeLoss="132.00" traveltime="341.00">
        <ride waitingTime="162.00" vehicle="t_0" depart="1898.00" arrival="2239.00" arrivalPos="83.20" duration="341.00" routeLength="958.14" timeLoss="132.00"/>
    </personinfo>
    <personinfo id="21" depart="2159.00" type="DEFAULT_PEDTYPE" speedFactor="0.99" duration="136.00" waitingTime="31.00" timeLoss="15.68" traveltime="105.00">
        <ride waitingTime="31.00" vehicle="t_1" depart="2190.00" arrival="2295.00" arrivalPos="0.20" duration="105.00" routeLength="299.90" timeLoss="15.68"/>
    </personinfo>
    <personinfo id="22" depart="2182.00" type="DEFAULT_PEDTYPE" speedFactor="1.14" duration="358.00" waitingTime="140.00" timeLoss="90.35" traveltime="218.00">
        <ride waitingTime="140.00" vehicle="t_1" depart="2322.00" arrival="2540.00" arrivalPos="83.20" duration="218.00" routeLength="476.03" timeLoss="90.35"/>
    </personinfo>
    <personinfo id="25" depart="2496.00" type="DEFAULT_PEDTYPE" speedFactor="0.91" duration="148.00" waitingTime="55.00" timeLoss="6.22" traveltime="93.00">
        <ride waitingTime="55.00" vehicle="t_0" depart="2551.00" arrival="2644.00" arrivalPos="0.20" duration="93.00" routeLength="287.42" timeLoss="6.22"/>
    </personinfo>
    <personinfo id="23" depart="2390.00" type="DEFAULT_PEDTYPE" speedFactor="0.96" duration="402.00" waitingTime="181.00" timeLoss="101.05" traveltime="221.00">
        <ride waitingTime="181.00" vehicle="t_1" depart="2571.00" arrival="2792.00" arrivalPos="83.20" duration="221.00" routeLength="577.45" timeLoss="101.05"/>
    </personinfo>
    <personinfo id="26" depart="2568.00" type="DEFAULT_PEDTYPE" speedFactor="1.07" duration="324.00" waitingTime="183.00" timeLoss="40.48" traveltime="141.00">
        <ride waitingTime="183.00" vehicle="t_0" depart="2751.00" arrival="2892.00" arrivalPos="79.20" duration="141.00" routeLength="453.03" timeLoss="40.48"/>
    </personinfo>
    <personinfo id="24" depart="2470.00" type="DEFAULT_PEDTYPE" speedFactor="0.90" duration="460.00" waitingTime="239.00" timeLoss="9.80" traveltime="221.00">
        <ride waitingTime="239.00" vehicle="t_1" depart="2709.00" arrival="2930.00" arrivalPos="79.20" duration="221.00" routeLength="352.29" timeLoss="9.80"/>
    </personinfo>
    <personinfo id="27" depart="2760.00" type="DEFAULT_PEDTYPE" speedFactor="0.91" duration="343.00" waitingTime="217.00" timeLoss="30.28" traveltime="126.00">
        <ride waitingTime="217.00" vehicle="t_0" depart="2977.00" arrival="3103.00" arrivalPos="78.65" duration="126.00" routeLength="386.52" timeLoss="30.28"/>
    </personinfo>
    <personinfo id="28" depart="2841.00" type="DEFAULT_PEDTYPE" speedFactor="1.12" duration="289.00" waitingTime="137.00" timeLoss="37.82" traveltime="152.00">
        <ride waitingTime="137.00" vehicle="t_1" depart="2978.00" arrival="3130.00" arrivalPos="79.20" duration="152.00" routeLength="434.41" timeLoss="37.82"/>
    </personinfo>
    <personinfo id="29" depart="2865.00" type="DEFAULT_PEDTYPE" speedFactor="0.91" duration="499.00" waitingTime="293.00" timeLoss="79.64" traveltime="206.00">
        <ride waitingTime="293.00" vehicle="t_1" depart="3158.00" arrival="3364.00" arrivalPos="83.20" duration="206.00" routeLength="661.51" timeLoss="79.64"/>
    </personinfo>
    <personinfo id="31" depart="3148.00" type="DEFAULT_PEDTYPE" speedFactor="1.02" duration="267.00" waitingTime="128.00" timeLoss="52.09" traveltime="139.00">
        <ride waitingTime="128.00" vehicle="t_0" depart="3276.00" arrival="3415.00" arrivalPos="78.65" duration="139.00" routeLength="264.83" timeLoss="52.09"/>
    </personinfo>
    <personinfo id="30" depart="3067.00" type="DEFAULT_PEDTYPE" speedFactor="1.04" duration="491.00" waitingTime="163.00" timeLoss="124.68" traveltime="328.00">
        <ride waitingTime="163.00" vehicle="t_1" depart="3230.00" arrival="3558.00" arrivalPos="78.65" duration="328.00" routeLength="862.46" timeLoss="124.68"/>
    </personinfo>
    <personinfo id="32" depart="3175.00" type="DEFAULT_PEDTYPE" speedFactor="0.92" duration="456.00" waitingTime="263.00" timeLoss="97.92" traveltime="193.00">
        <ride waitingTime="263.00" vehicle="t_0" depart="3438.00" arrival="3631.00" arrivalPos="78.65" duration="193.00" routeLength="368.82" timeLoss="97.92"/>
    </personinfo>
    <personinfo id="35" depart="3346.00" type="DEFAULT_PEDTYPE" speedFactor="0.87" duration="404.00" waitingTime="314.00" timeLoss="5.51" traveltime="90.00">
        <ride waitingTime="314.00" vehicle="t_0" depart="3660.00" arrival="3750.00" arrivalPos="79.20" duration="90.00" routeLength="261.02" timeLoss="5.51"/>
    </personinfo>
    <personinfo id="33" depart="3244.00" type="DEFAULT_PEDTYPE" speedFactor="1.01" duration="519.00" waitingTime="373.00" timeLoss="44.25" traveltime="146.00">
        <ride waitingTime="373.00" vehicle="t_1" depart="3617.00" arrival="3763.00" arrivalPos="78.65" duration="146.00" routeLength="451.27" timeLoss="44.25"/>
    </personinfo>
    <personinfo id="34" depart="3270.00" type="DEFAULT_PEDTYPE" speedFactor="1.00" duration="686.00" waitingTime="541.00" timeLoss="52.84" traveltime="145.00">
        <ride waitingTime="541.00" vehicle="t_0" depart="3811.00" arrival="3956.00" arrivalPos="83.20" duration="145.00" routeLength="361.47" timeLoss="52.84"/>
    </personinfo>
    <personinfo id="36" depart="3566.00" type="DEFAULT_PEDTYPE" speedFactor="1.01" duration="393.00" waitingTime="265.00" timeLoss="27.77" traveltime="128.00">
        <ride waitingTime="265.00" vehicle="t_1" depart="3831.00" arrival="3959.00" arrivalPos="78.65" duration="128.00" routeLength="387.95" timeLoss="27.77"/>
    </personinfo>
    <personinfo id="38" depart="3965.00" type="DEFAULT_PEDTYPE" speedFactor="0.90" duration="215.00" waitingTime="56.00" timeLoss="62.12" traveltime="159.00">
        <ride waitingTime="56.00" vehicle="t_0" depart="4021.00" arrival="4180.00" arrivalPos="79.20" duration="159.00" routeLength="280.72" timeLoss="62.12"/>
    </personinfo>
    <personinfo id="37" depart="3780.00" type="DEFAULT_PEDTYPE" speedFactor="1.17" duration="479.00" waitingTime="303.00" timeLoss="49.67" traveltime="176.00">
        <ride waitingTime="303.00" vehicle="t_1" depart="4083.00" arrival="4259.00" arrivalPos="83.20" duration="176.00" routeLength="790.04" timeLoss="49.67"/>
    </personinfo>
    <personinfo id="40" depart="4118.00" type="DEFAULT_PEDTYPE" speedFactor="0.83" duration="282.00" waitingTime="166.00" timeLoss="6.67" traveltime="116.00">
        <ride waitingTime="166.00" vehicle="t_0" depart="4284.00" arrival="4400.00" arrivalPos="0.20" duration="116.00" routeLength="255.31" timeLoss="6.67"/>
    </personinfo>
    <personinfo id="39" depart="4044.00" type="DEFAULT_PEDTYPE" speedFactor="1.00" duration="376.00" waitingTime="39.00" timeLoss="80.59" traveltime="337.00">
        <ride waitingTime="39.00" vehicle="t_1" depart="4083.00" arrival="4420.00" arrivalPos="83.20" duration="337.00" routeLength="1280.32" timeLoss="80.59"/>
    </personinfo>
    <personinfo id="41" depart="4333.00" type="DEFAULT_PEDTYPE" speedFactor="1.10" duration="241.00" waitingTime="128.00" timeLoss="27.44" traveltime="113.00">
        <ride waitingTime="128.00" vehicle="t_0" depart="4461.00" arrival="4574.00" arrivalPos="0.20" duration="113.00" routeLength="290.28" timeLoss="27.44"/>
    </personinfo>
    <personinfo id="43" depart="4438.00" type="DEFAULT_PEDTYPE" speedFactor="0.91" duration="272.00" waitingTime="166.00" timeLoss="23.91" traveltime="106.00">
        <ride waitingTime="166.00" vehicle="t_0" depart="4604.00" arrival="4710.00" arrivalPos="79.20" duration="106.00" routeLength="206.86" timeLoss="23.91"/>
    </personinfo>
    <personinfo id="42" depart="4358.00" type="DEFAULT_PEDTYPE" speedFactor="0.95" duration="397.00" waitingTime="167.00" timeLoss="119.09" traveltime="230.00">
        <ride waitingTime="167.00" vehicle="t_1" depart="4525.00" arrival="4755.00" arrivalPos="78.65" duration="230.00" routeLength="564.43" timeLoss="119.09"/>
    </personinfo>
    <personinfo id="44" depart="4461.00" type="DEFAULT_PEDTYPE" speedFactor="1.02" duration="496.00" waitingTime="360.00" timeLoss="33.26" traveltime="136.00">
        <ride waitingTime="360.00" vehicle="t_0" depart="4821.00" arrival="4957.00" arrivalPos="78.65" duration="136.00" routeLength="464.33" timeLoss="33.26"/>
    </personinfo>
    <personinfo id="45" depart="4680.00" type="DEFAULT_PEDTYPE" speedFactor="1.01" duration="340.00" waitingTime="142.00" timeLoss="47.82" traveltime="198.00">
        <ride waitingTime="142.00" vehicle="t_1" depart="4822.00" arrival="5020.00" arrivalPos="83.20" duration="198.00" routeLength="553.31" timeLoss="47.82"/>
    </personinfo>
    <personinfo id="46" depart="4872.00" type="DEFAULT_PEDTYPE" speedFactor="1.14" duration="344.00" waitingTime="177.00" timeLoss="43.65" traveltime="167.00">
        <ride waitingTime="177.00" vehicle="t_0" depart="5049.00" arrival="5216.00" arrivalPos="0.20" duration="167.00" routeLength="713.61" timeLoss="43.65"/>
    </personinfo>
    <personinfo id="47" depart="4953.00" type="DEFAULT_PEDTYPE" speedFactor="1.02" duration="266.00" waitingTime="116.00" timeLoss="53.33" traveltime="150.00">
        <ride waitingTime="116.00" vehicle="t_1" depart="5069.00" arrival="5219.00" arrivalPos="83.20" duration="150.00" routeLength="372.92" timeLoss="53.33"/>
    </personinfo>
    <personinfo id="48" depart="5024.00" type="DEFAULT_PEDTYPE" speedFactor="1.08" duration="360.00" waitingTime="64.00" timeLoss="119.36" traveltime="296.00">
        <ride waitingTime="64.00" vehicle="t_0" depart="5088.00" arrival="5384.00" arrivalPos="79.20" duration="296.00" routeLength="589.56" timeLoss="119.36"/>
    </personinfo>
    <personinfo id="49" depart="5047.00" type="DEFAULT_PEDTYPE" speedFactor="0.88" duration="353.00" waitingTime="191.00" timeLoss="41.80" traveltime="162.00">
        <ride waitingTime="191.00" vehicle="t_1" depart="5238.00" arrival="5400.00" arrivalPos="78.65" duration="162.00" routeLength="589.65" timeLoss="41.80"/>
    </personinfo>
    <personinfo id="50" depart="5075.00" type="DEFAULT_PEDTYPE" speedFactor="0.81" duration="446.00" waitingTime="196.00" timeLoss="69.54" traveltime="250.00">
        <ride waitingTime="196.00" vehicle="t_1" depart="5271.00" arrival="5521.00" arrivalPos="83.20" duration="250.00" routeLength="578.47" timeLoss="69.54"/>
    </personinfo>
    <personinfo id="52" depart="5122.00" type="DEFAULT_PEDTYPE" speedFactor="1.15" duration="558.00" waitingTime="408.00" timeLoss="41.77" traveltime="150.00">
        <ride waitingTime="408.00" vehicle="t_0" depart="5530.00" arrival="5680.00" arrivalPos="78.65" duration="150.00" routeLength="362.22" timeLoss="41.77"/>
    </personinfo>
    <personinfo id="53" depart="5149.00" type="DEFAULT_PEDTYPE" speedFactor="1.04" duration="533.00" waitingTime="449.00" timeLoss="3.93" traveltime="84.00">
        <ride waitingTime="449.00" vehicle="t_1" depart="5598.00" arrival="5682.00" arrivalPos="78.65" duration="84.00" routeLength="162.22" timeLoss="3.93"/>
    </personinfo>
    <personinfo id="51" depart="5098.00" type="DEFAULT_PEDTYPE" speedFactor="0.97" duration="738.00" waitingTime="354.00" timeLoss="136.70" traveltime="384.00">
        <ride waitingTime="354.00" vehicle="t_0" depart="5452.00" arrival="5836.00" arrivalPos="79.20" duration="384.00" routeLength="1264.78" timeLoss="136.70"/>
    </personinfo>
    <personinfo id="54" depart="5337.00" type="DEFAULT_PEDTYPE" speedFactor="0.86" duration="593.00" waitingTime="459.00" timeLoss="3.32" traveltime="134.00">
        <ride waitingTime="459.00" vehicle="t_1" depart="5796.00" arrival="5930.00" arrivalPos="83.20" duration="134.00" routeLength="164.00" timeLoss="3.32"/>
    </personinfo>
    <personinfo id="55" depart="5543.00" type="DEFAULT_PEDTYPE" speedFactor="0.98" duration="490.00" waitingTime="348.00" timeLoss="51.17" traveltime="142.00">
        <ride waitingTime="348.00" vehicle="t_0" depart="5891.00" arrival="6033.00" arrivalPos="78.65" duration="142.00" routeLength="299.43" timeLoss="51.17"/>
    </personinfo>
    <personinfo id="58" depart="5869.00" type="DEFAULT_PEDTYPE" speedFactor="0.99" duration="350.00" waitingTime="197.00" timeLoss="47.48" traveltime="153.00">
        <ride waitingTime="197.00" vehicle="t_1" depart="6066.00" arrival="6219.00" arrivalPos="83.20" duration="153.00" routeLength="555.69" timeLoss="47.48"/>
    </personinfo>
    <personinfo id="56" depart="5612.00" type="DEFAULT_PEDTYPE" speedFactor="0.96" duration="615.00" waitingTime="472.00" timeLoss="28.38" traveltime="143.00">
        <ride waitingTime="472.00" vehicle="t_0" depart="6084.00" arrival="6227.00" arrivalPos="83.20" duration="143.00" routeLength="688.80" timeLoss="28.38"/>
    </personinfo>
    <personinfo id="57" depart="5680.00" type="DEFAULT_PEDTYPE" speedFactor="0.94" duration="568.00" waitingTime="301.00" timeLoss="96.38" traveltime="267.00">
        <ride waitingTime="301.00" vehicle="t_1" depart="5981.00" arrival="6248.00" arrivalPos="0.20" duration="267.00" routeLength="1238.05" timeLoss="96.38"/>
    </personinfo>
    <personinfo id="60" depart="6120.00" type="DEFAULT_PEDTYPE" speedFactor="0.95" duration="260.00" waitingTime="155.00" timeLoss="5.62" traveltime="105.00">
        <ride waitingTime="155.00" vehicle="t_0" depart="6275.00" arrival="6380.00" arrivalPos="0.20" duration="105.00" routeLength="176.28" timeLoss="5.62"/>
    </personinfo>
    <personinfo id="59" depart="6051.00" type="DEFAULT_PEDTYPE" speedFactor="0.92" duration="334.00" waitingTime="199.00" timeLoss="33.46" traveltime="135.00">
        <ride waitingTime="199.00" vehicle="t_1" depart="6250.00" arrival="6385.00" arrivalPos="83.20" duration="135.00" routeLength="461.45" timeLoss="33.46"/>
    </personinfo>
    <personinfo id="61" depart="6319.00" type="DEFAULT_PEDTYPE" speedFactor="1.04" duration="288.00" waitingTime="152.00" timeLoss="36.01" traveltime="136.00">
        <ride waitingTime="152.00" vehicle="t_0" depart="6471.00" arrival="6607.00" arrivalPos="83.20" duration="136.00" routeLength="457.26" timeLoss="36.01"/>
    </personinfo>
    <personinfo id="63" depart="6608.00" type="DEFAULT_PEDTYPE" speedFactor="0.93" duration="195.00" waitingTime="67.00" timeLoss="25.93" traveltime="128.00">
        <ride waitingTime="67.00" vehicle="t_0" depart="6675.00" arrival="6803.00" arrivalPos="78.65" duration="128.00" routeLength="452.12" timeLoss="25.93"/>
    </personinfo>
    <personinfo id="64" depart="6678.00" type="DEFAULT_PEDTYPE" speedFactor="1.15" duration="202.00" waitingTime="81.00" timeLoss="23.88" traveltime="121.00">
        <ride waitingTime="81.00" vehicle="t_1" depart="6759.00" arrival="6880.00" arrivalPos="79.20" duration="121.00" routeLength="376.16" timeLoss="23.88"/>
    </personinfo>
    <personinfo id="62" depart="6536.00" type="DEFAULT_PEDTYPE" speedFactor="1.13" duration="389.00" waitingTime="111.00" timeLoss="66.94" traveltime="278.00">
        <ride waitingTime="111.00" vehicle="t_0" depart="6647.00" arrival="6925.00" arrivalPos="83.20" duration="278.00" routeLength="927.68" timeLoss="66.94"/>
    </personinfo>
    <personinfo id="65" depart="6751.00" type="DEFAULT_PEDTYPE" speedFactor="0.97" duration="359.00" waitingTime="196.00" timeLoss="23.03" traveltime="163.00">
        <ride waitingTime="196.00" vehicle="t_1" depart="6947.00" arrival="7110.00" arrivalPos="79.20" duration="163.00" routeLength="305.38" timeLoss="23.03"/>
    </personinfo>
    <personinfo id="66" depart="6933.00" type="DEFAULT_PEDTYPE" speedFactor="1.17" duration="257.00" waitingTime="33.00" timeLoss="80.71" traveltime="224.00">
        <ride waitingTime="33.00" vehicle="t_0" depart="6966.00" arrival="7190.00" arrivalPos="78.65" duration="224.00" routeLength="342.28" timeLoss="80.71"/>
    </personinfo>
    <personinfo id="68" depart="6979.00" type="DEFAULT_PEDTYPE" speedFactor="1.04" duration="441.00" waitingTime="237.00" timeLoss="7.35" traveltime="204.00">
        <ride waitingTime="237.00" vehicle="t_1" depart="7216.00" arrival="7420.00" arrivalPos="79.20" duration="204.00" routeLength="376.27" timeLoss="7.35"/>
    </personinfo>
    <personinfo id="67" depart="6956.00" type="DEFAULT_PEDTYPE" speedFactor="0.91" duration="494.00" waitingTime="297.00" timeLoss="6.40" traveltime="197.00">
        <ride waitingTime="297.00" vehicle="t_0" depart="7253.00" arrival="7450.00" arrivalPos="79.20" duration="197.00" routeLength="246.33" timeLoss="6.40"/>
    </personinfo>
    <personinfo id="69" depart="7049.00" type="DEFAULT_PEDTYPE" speedFactor="0.98" duration="476.00" waitingTime="381.00" timeLoss="5.02" traveltime="95.00">
        <ride waitingTime="381.00" vehicle="t_1" depart="7430.00" arrival="7525.00" arrivalPos="78.65" duration="95.00" routeLength="299.48" timeLoss="5.02"/>
    </personinfo>
    <personinfo id="71" depart="7304.00" type="DEFAULT_PEDTYPE" speedFactor="1.10" duration="420.00" waitingTime="240.00" timeLoss="77.81" traveltime="180.00">
        <ride waitingTime="240.00" vehicle="t_1" depart="7544.00" arrival="7724.00" arrivalPos="83.20" duration="180.00" routeLength="377.48" timeLoss="77.81"/>
    </personinfo>
    <personinfo id="74" depart="7382.00" type="DEFAULT_PEDTYPE" speedFactor="1.04" duration="344.00" waitingTime="205.00" timeLoss="51.11" traveltime="139.00">
        <ride waitingTime="205.00" vehicle="t_0" depart="7587.00" arrival="7726.00" arrivalPos="78.65" duration="139.00" routeLength="256.11" timeLoss="51.11"/>
    </personinfo>
    <personinfo id="76" depart="7521.00" type="DEFAULT_PEDTYPE" speedFactor="1.06" duration="299.00" waitingTime="35.00" timeLoss="76.79" traveltime="264.00">
        <ride waitingTime="35.00" vehicle="t_1" depart="7556.00" arrival="7820.00" arrivalPos="83.20" duration="264.00" routeLength="446.00" timeLoss="76.79"/>
    </personinfo>
    <personinfo id="70" depart="7120.00" type="DEFAULT_PEDTYPE" speedFactor="0.88" duration="740.00" waitingTime="402.00" timeLoss="132.59" traveltime="338.00">
        <ride waitingTime="402.00" vehicle="t_0" depart="7522.00" arrival="7860.00" arrivalPos="83.20" duration="338.00" routeLength="838.13" timeLoss="132.59"/>
    </personinfo>
    <personinfo id="75" depart="7449.00" type="DEFAULT_PEDTYPE" speedFactor="1.07" duration="591.00" waitingTime="442.00" timeLoss="14.45" traveltime="149.00">
        <ride waitingTime="442.00" vehicle="t_1" depart="7891.00" arrival="8040.00" arrivalPos="79.20" duration="149.00" routeLength="662.74" timeLoss="14.45"/>
    </personinfo>
    <personinfo id="72" depart="7332.00" type="DEFAULT_PEDTYPE" speedFactor="1.02" duration="781.00" waitingTime="574.00" timeLoss="73.70" traveltime="207.00">
        <ride waitingTime="574.00" vehicle="t_0" depart="7906.00" arrival="8113.00" arrivalPos="83.20" duration="207.00" routeLength="807.16" timeLoss="73.70"/>
    </personinfo>
    <personinfo id="73" depart="7355.00" type="DEFAULT_PEDTYPE" speedFactor="0.99" duration="846.00" waitingTime="555.00" timeLoss="59.03" traveltime="291.00">
        <ride waitingTime="555.00" vehicle="t_1" depart="7910.00" arrival="8201.00" arrivalPos="83.20" duration="291.00" routeLength="1033.37" timeLoss="59.03"/>
    </personinfo>
    <personinfo id="77" depart="7727.00" type="DEFAULT_PEDTYPE" speedFactor="1.15" duration="523.00" waitingTime="254.00" timeLoss="27.21" traveltime="269.00">
        <ride waitingTime="254.00" vehicle="t_0" depart="7981.00" arrival="8250.00" arrivalPos="83.20" duration="269.00" routeLength="648.10" timeLoss="27.21"/>
    </personinfo>
    <personinfo id="78" depart="7751.00" type="DEFAULT_PEDTYPE" speedFactor="1.16" duration="578.00" waitingTime="358.00" timeLoss="15.54" traveltime="220.00">
        <ride waitingTime="358.00" vehicle="t_1" depart="8109.00" arrival="8329.00" arrivalPos="83.20" duration="220.00" routeLength="857.41" timeLoss="15.54"/>
    </personinfo>
    <personinfo id="79" depart="7953.00" type="DEFAULT_PEDTYPE" speedFactor="1.04" duration="422.00" waitingTime="345.00" timeLoss="3.66" traveltime="77.00">
        <ride waitingTime="345.00" vehicle="t_0" depart="8298.00" arrival="8375.00" arrivalPos="78.65" duration="77.00" routeLength="94.94" timeLoss="3.66"/>
    </personinfo>
    <personinfo id="80" depart="7976.00" type="DEFAULT_PEDTYPE" speedFactor="0.95" duration="504.00" waitingTime="243.00" timeLoss="47.56" traveltime="261.00">
        <ride waitingTime="243.00" vehicle="t_1" depart="8219.00" arrival="8480.00" arrivalPos="79.20" duration="261.00" routeLength="579.45" timeLoss="47.56"/>
    </personinfo>
    <personinfo id="82" depart="8185.00" type="DEFAULT_PEDTYPE" speedFactor="0.92" duration="375.00" waitingTime="283.00" timeLoss="6.73" traveltime="92.00">
        <ride waitingTime="283.00" vehicle="t_0" depart="8468.00" arrival="8560.00" arrivalPos="0.20" duration="92.00" routeLength="278.59" timeLoss="6.73"/>
    </personinfo>
    <personinfo id="83" depart="8210.00" type="DEFAULT_PEDTYPE" speedFactor="1.04" duration="430.00" waitingTime="305.00" timeLoss="8.22" traveltime="125.00">
        <ride waitingTime="305.00" vehicle="t_1" depart="8515.00" arrival="8640.00" arrivalPos="79.20" duration="125.00" routeLength="271.38" timeLoss="8.22"/>
    </personinfo>
    <personinfo id="81" depart="8162.00" type="DEFAULT_PEDTYPE" speedFactor="1.07" duration="597.00" waitingTime="439.00" timeLoss="48.54" traveltime="158.00">
        <ride waitingTime="439.00" vehicle="t_0" depart="8601.00" arrival="8759.00" arrivalPos="78.65" duration="158.00" routeLength="447.24" timeLoss="48.54"/>
    </personinfo>
    <personinfo id="84" depart="8413.00" type="DEFAULT_PEDTYPE" speedFactor="0.88" duration="415.00" waitingTime="254.00" timeLoss="56.82" traveltime="161.00">