<?xml version="1.0" encoding="UTF-8"?>

<!-- generated on 2026-03-30T19:29:24.826566+08:00 by Eclipse SUMO sumo 1.26.0
<sumoConfiguration xmlns:xsi="http://www.w3.org/2001/XMLSchema-instance" xsi:noNamespaceSchemaLocation="http://sumo.dlr.de/xsd/sumoConfiguration.xsd">

    <input>
        <net-file value="D:\FYP\DQNVersion1\SmallTestingMap\map.net.xml"/>
        <route-files value="D:\FYP\DQNVersion1\SmallTestingMap\map.rou.xml,D:\FYP\DQNVersion1\SmallTestingMap\persontrips_scale.rou.xml"/>
    </input>

    <output>
        <tripinfo-output value="D:\FYP\DQNVersion1\SmallTestingMap\tripinfos.xml"/>
        <stop-output value="D:\FYP\DQNVersion1\SmallTestingMap\stopinfos.xml"/>
        <statistic-output value="D:\FYP\DQNVersion1\SmallTestingMap\stats.xml"/>
    </output>

    <time>
        <step-length value="1.0"/>
    </time>

    <report>
        <verbose value="true"/>
        <duration-log.statistics value="true"/>
        <no-step-log value="true"/>
    </report>

    <taxi_device>
        <device.taxi.dispatch-algorithm value="traci"/>
        <device.taxi.idle-algorithm value="stop"/>
    </taxi_device>

    <traci_server>
        <remote-port value="63102"/>
    </traci_server>

</sumoConfiguration>
-->

<tripinfos xmlns:xsi="http://www.w3.org/2001/XMLSchema-instance" xsi:noNamespaceSchemaLocation="http://sumo.dlr.de/xsd/tripinfo_file.xsd">
    <personinfo id="0" depart="0.00" type="DEFAULT_PEDTYPE" speedFactor="1.01" duration="150.00" waitingTime="61.00" timeLoss="6.69" traveltime="89.00">
        <ride waitingTime="61.00" vehicle="t_1" depart="61.00" arrival="150.00" arrivalPos="0.20" duration="89.00" routeLength="213.44" timeLoss="6.69"/>
    </personinfo>
    <personinfo id="1" depart="24.00" type="DEFAULT_PEDTYPE" speedFactor="1.08" duration="330.00" waitingTime="152.00" timeLoss="69.16" traveltime="178.00">
        <ride waitingTime="152.00" vehicle="t_1" depart="176.00" arrival="354.00" arrivalPos="83.20" duration="178.00" routeLength="551.75" timeLoss="69.16"/>
    </personinfo>
    <personinfo id="2" depart="234.00" type="DEFAULT_PEDTYPE" speedFactor="1.12" duration="144.00" waitingTime="52.00" timeLoss="7.14" traveltime="92.00">
        <ride waitingTime="52.00" vehicle="t_0" depart="286.00" arrival="378.00" arrivalPos="0.20" duration="92.00" routeLength="278.84" timeLoss="7.14"/>
    </personinfo>
    <personinfo id="3" depart="431.00" type="DEFAULT_PEDTYPE" speedFactor="0.90" duration="140.00" waitingTime="53.00" timeLoss="7.66" traveltime="87.00">
        <ride waitingTime="53.00" vehicle="t_1" depart="484.00" arrival="571.00" arrivalPos="0.20" duration="87.00" routeLength="177.98" timeLoss="7.66"/>
    </personinfo>
    <personinfo id="4" depart="454.00" type="DEFAULT_PEDTYPE" speedFactor="0.88" duration="162.00" waitingTime="36.00" timeLoss="47.22" traveltime="126.00">
        <ride waitingTime="36.00" vehicle="t_0" depart="490.00" arrival="616.00" arrivalPos="0.20" duration="126.00" routeLength="199.99" timeLoss="47.22"/>
    </personinfo>
    <personinfo id="5" depart="642.00" type="DEFAULT_PEDTYPE" speedFactor="0.97" duration="188.00" waitingTime="85.00" timeLoss="9.10" traveltime="103.00">
        <ride waitingTime="85.00" vehicle="t_1" depart="727.00" arrival="830.00" arrivalPos="0.20" duration="103.00" routeLength="318.68" timeLoss="9.10"/>
    </personinfo>
    <personinfo id="6" depart="839.00" type="DEFAULT_PEDTYPE" speedFactor="1.15" duration="122.00" waitingTime="20.00" timeLoss="8.75" traveltime="102.00">
        <ride waitingTime="20.00" vehicle="t_1" depart="859.00" arrival="961.00" arrivalPos="83.20" duration="102.00" routeLength="338.58" timeLoss="8.75"/>
    </personinfo>
    <personinfo id="7" depart="919.00" type="DEFAULT_PEDTYPE" speedFactor="0.82" duration="141.00" waitingTime="13.00" timeLoss="13.04" traveltime="128.00">
        <ride waitingTime="13.00" vehicle="t_0" depart="932.00" arrival="1060.00" arrivalPos="78.65" duration="128.00" routeLength="275.62" timeLoss="13.04"/>
    </personinfo>
    <personinfo id="8" depart="945.00" type="DEFAULT_PEDTYPE" speedFactor="1.12" duration="253.00" waitingTime="138.00" timeLoss="36.99" traveltime="115.00">
        <ride waitingTime="138.00" vehicle="t_0" depart="1083.00" arrival="1198.00" arrivalPos="83.20" duration="115.00" routeLength="175.69" timeLoss="36.99"/>
    </personinfo>
    <personinfo id="11" depart="1068.00" type="DEFAULT_PEDTYPE" speedFactor="1.07" duration="176.00" waitingTime="73.00" timeLoss="22.97" traveltime="103.00">
        <ride waitingTime="73.00" vehicle="t_1" depart="1141.00" arrival="1244.00" arrivalPos="78.65" duration="103.00" routeLength="180.19" timeLoss="22.97"/>
    </personinfo>
    <personinfo id="12" depart="1266.00" type="DEFAULT_PEDTYPE" speedFactor="0.94" duration="142.00" waitingTime="56.00" timeLoss="5.85" traveltime="86.00">
        <ride waitingTime="56.00" vehicle="t_1" depart="1322.00" arrival="1408.00" arrivalPos="0.20" duration="86.00" routeLength="178.62" timeLoss="5.85"/>
    </personinfo>
    <personinfo id="9" depart="968.00" type="DEFAULT_PEDTYPE" speedFactor="1.01" duration="468.00" waitingTime="301.00" timeLoss="73.96" traveltime="167.00">
        <ride waitingTime="301.00" vehicle="t_0" depart="1269.00" arrival="1436.00" arrivalPos="83.20" duration="167.00" routeLength="352.24" timeLoss="73.96"/>
    </personinfo>
    <personinfo id="10" depart="991.00" type="DEFAULT_PEDTYPE" speedFactor="1.03" duration="631.00" waitingTime="489.00" timeLoss="44.65" traveltime="142.00">
        <ride waitingTime="489.00" vehicle="t_0" depart="1480.00" arrival="1622.00" arrivalPos="79.20" duration="142.00" routeLength="450.85" timeLoss="44.65"/>
    </personinfo>
    <personinfo id="14" depart="1507.00" type="DEFAULT_PEDTYPE" speedFactor="1.10" duration="143.00" waitingTime="42.00" timeLoss="3.80" traveltime="101.00">
        <ride waitingTime="42.00" vehicle="t_1" depart="1549.00" arrival="1650.00" arrivalPos="78.65" duration="101.00" routeLength="276.21" timeLoss="3.80"/>
    </personinfo>
    <personinfo id="15" depart="1533.00" type="DEFAULT_PEDTYPE" speedFactor="1.16" duration="267.00" waitingTime="138.00" timeLoss="9.52" traveltime="129.00">
        <ride waitingTime="138.00" vehicle="t_1" depart="1671.00" arrival="1800.00" arrivalPos="78.65" duration="129.00" routeLength="372.92" timeLoss="9.52"/>
    </personinfo>
    <personinfo id="13" depart="1291.00" type="DEFAULT_PEDTYPE" speedFactor="1.11" duration="518.00" waitingTime="392.00" timeLoss="29.52" traveltime="126.00">
        <ride waitingTime="392.00" vehicle="t_0" depart="1683.00" arrival="1809.00" arrivalPos="78.65" duration="126.00" routeLength="391.67" timeLoss="29.52"/>
    </personinfo>
    <personinfo id="16" depart="1559.00" type="DEFAULT_PEDTYPE" speedFactor="0.98" duration="361.00" waitingTime="143.00" timeLoss="41.37" traveltime="218.00">
        <ride waitingTime="143.00" vehicle="t_1" depart="1702.00" arrival="1920.00" arrivalPos="79.20" duration="218.00" routeLength="316.48" timeLoss="41.37"/>
    </personinfo>
    <personinfo id="17" depart="1586.00" type="DEFAULT_PEDTYPE" speedFactor="1.14" duration="482.00" waitingTime="358.00" timeLoss="29.66" traveltime="124.00">
        <ride waitingTime="358.00" vehicle="t_1" depart="1944.00" arrival="2068.00" arrivalPos="83.20" duration="124.00" routeLength="361.43" timeLoss="29.66"/>
    </personinfo>
    <personinfo id="20" depart="1953.00" type="DEFAULT_PEDTYPE" speedFactor="1.15" duration="133.00" waitingTime="41.00" timeLoss="5.47" traveltime="92.00">
        <ride waitingTime="41.00" vehicle="t_0" depart="1994.00" arrival="2086.00" arrivalPos="83.20" duration="92.00" routeLength="266.10" timeLoss="5.47"/>
    </personinfo>
    <personinfo id="21" depart="2159.00" type="DEFAULT_PEDTYPE" speedFactor="1.01" duration="132.00" waitingTime="31.00" timeLoss="14.28" traveltime="101.00">
        <ride waitingTime="31.00" vehicle="t_0" depart="2190.00" arrival="2291.00" arrivalPos="0.20" duration="101.00" routeLength="299.94" timeLoss="14.28"/>
    </personinfo>
    <personinfo id="18" depart="1663.00" type="DEFAULT_PEDTYPE" speedFactor="0.91" duration="675.00" waitingTime="505.00" timeLoss="55.88" traveltime="170.00">
        <ride waitingTime="505.00" vehicle="t_1" depart="2168.00" arrival="2338.00" arrivalPos="83.20" duration="170.00" routeLength="577.45" timeLoss="55.88"/>
    </personinfo>
    <personinfo id="19" depart="1736.00" type="DEFAULT_PEDTYPE" speedFactor="0.84" duration="769.00" waitingTime="432.00" timeLoss="125.29" traveltime="337.00">
        <ride waitingTime="432.00" vehicle="t_1" depart="2168.00" arrival="2505.00" arrivalPos="83.20" duration="337.00" routeLength="958.14" timeLoss="125.29"/>
    </personinfo>
    <personinfo id="23" depart="2390.00" type="DEFAULT_PEDTYPE" speedFactor="0.95" duration="240.00" waitingTime="48.00" timeLoss="55.56" traveltime="192.00">
        <ride waitingTime="48.00" vehicle="t_0" depart="2438.00" arrival="2630.00" arrivalPos="83.20" duration="192.00" routeLength="577.41" timeLoss="55.56"/>
    </personinfo>
    <personinfo id="22" depart="2182.00" type="DEFAULT_PEDTYPE" speedFactor="1.02" duration="511.00" waitingTime="368.00" timeLoss="42.78" traveltime="143.00">
        <ride waitingTime="368.00" vehicle="t_1" depart="2550.00" arrival="2693.00" arrivalPos="83.20" duration="143.00" routeLength="476.09" timeLoss="42.78"/>
    </personinfo>
    <personinfo id="24" depart="2470.00" type="DEFAULT_PEDTYPE" speedFactor="1.03" duration="250.00" waitingTime="59.00" timeLoss="11.90" traveltime="191.00">
        <ride waitingTime="59.00" vehicle="t_0" depart="2529.00" arrival="2720.00" arrivalPos="79.20" duration="191.00" routeLength="352.26" timeLoss="11.90"/>
    </personinfo>
    <personinfo id="25" depart="2496.00" type="DEFAULT_PEDTYPE" speedFactor="0.68" duration="416.00" waitingTime="256.00" timeLoss="73.10" traveltime="160.00">
        <ride waitingTime="256.00" vehicle="t_0" depart="2752.00" arrival="2912.00" arrivalPos="0.20" duration="160.00" routeLength="287.41" timeLoss="73.10"/>
    </personinfo>
    <personinfo id="27" depart="2760.00" type="DEFAULT_PEDTYPE" speedFactor="0.88" duration="275.00" waitingTime="106.00" timeLoss="71.84" traveltime="169.00">
        <ride waitingTime="106.00" vehicle="t_1" depart="2866.00" arrival="3035.00" arrivalPos="78.65" duration="169.00" routeLength="386.51" timeLoss="71.84"/>
    </personinfo>
    <personinfo id="26" depart="2568.00" type="DEFAULT_PEDTYPE" speedFactor="1.01" duration="642.00" waitingTime="453.00" timeLoss="41.00" traveltime="189.00">
        <ride waitingTime="453.00" vehicle="t_0" depart="3021.00" arrival="3210.00" arrivalPos="79.20" duration="189.00" routeLength="453.10" timeLoss="41.00"/>
    </personinfo>
    <personinfo id="28" depart="2841.00" type="DEFAULT_PEDTYPE" speedFactor="1.20" duration="399.00" waitingTime="225.00" timeLoss="38.31" traveltime="174.00">
        <ride waitingTime="225.00" vehicle="t_1" depart="3066.00" arrival="3240.00" arrivalPos="79.20" duration="174.00" routeLength="434.41" timeLoss="38.31"/>
    </personinfo>
    <personinfo id="30" depart="3067.00" type="DEFAULT_PEDTYPE" speedFactor="0.98" duration="321.00" waitingTime="213.00" timeLoss="8.52" traveltime="108.00">
        <ride waitingTime="213.00" vehicle="t_0" depart="3280.00" arrival="3388.00" arrivalPos="78.65" duration="108.00" routeLength="449.69" timeLoss="8.52"/>
    </personinfo>
    <personinfo id="29" depart="2865.00" type="DEFAULT_PEDTYPE" speedFactor="1.08" duration="551.00" waitingTime="395.00" timeLoss="54.39" traveltime="156.00">
        <ride waitingTime="395.00" vehicle="t_1" depart="3260.00" arrival="3416.00" arrivalPos="83.20" duration="156.00" routeLength="476.93" timeLoss="54.39"/>
    </personinfo>
    <personinfo id="31" depart="3148.00" type="DEFAULT_PEDTYPE" speedFactor="1.13" duration="364.00" waitingTime="271.00" timeLoss="6.39" traveltime="93.00">
        <ride waitingTime="271.00" vehicle="t_0" depart="3419.00" arrival="3512.00" arrivalPos="78.65" duration="93.00" routeLength="264.85" timeLoss="6.39"/>
    </personinfo>
    <personinfo id="32" depart="3175.00" type="DEFAULT_PEDTYPE" speedFactor="1.12" duration="455.00" waitingTime="276.00" timeLoss="82.77" traveltime="179.00">
        <ride waitingTime="276.00" vehicle="t_1" depart="3451.00" arrival="3630.00" arrivalPos="78.65" duration="179.00" routeLength="368.83" timeLoss="82.77"/>
    </personinfo>
    <personinfo id="33" depart="3244.00" type="DEFAULT_PEDTYPE" speedFactor="0.95" duration="436.00" waitingTime="326.00" timeLoss="11.69" traveltime="110.00">
        <ride waitingTime="326.00" vehicle="t_0" depart="3570.00" arrival="3680.00" arrivalPos="78.65" duration="110.00" routeLength="451.23" timeLoss="11.69"/>
    </personinfo>
    <personinfo id="34" depart="3270.00" type="DEFAULT_PEDTYPE" speedFactor="1.00" duration="505.00" waitingTime="390.00" timeLoss="21.77" traveltime="115.00">
        <ride waitingTime="390.00" vehicle="t_1" depart="3660.00" arrival="3775.00" arrivalPos="83.20" duration="115.00" routeLength="361.52" timeLoss="21.77"/>
    </personinfo>
    <personinfo id="36" depart="3566.00" type="DEFAULT_PEDTYPE" speedFactor="0.93" duration="299.00" waitingTime="174.00" timeLoss="29.18" traveltime="125.00">
        <ride waitingTime="174.00" vehicle="t_0" depart="3740.00" arrival="3865.00" arrivalPos="78.65" duration="125.00" routeLength="387.92" timeLoss="29.18"/>
    </personinfo>
    <personinfo id="35" depart="3346.00" type="DEFAULT_PEDTYPE" speedFactor="1.05" duration="654.00" waitingTime="532.00" timeLoss="34.59" traveltime="122.00">
        <ride waitingTime="532.00" vehicle="t_1" depart="3878.00" arrival="4000.00" arrivalPos="79.20" duration="122.00" routeLength="260.99" timeLoss="34.59"/>
    </personinfo>
    <personinfo id="37" depart="3780.00" type="DEFAULT_PEDTYPE" speedFactor="0.96" duration="400.00" waitingTime="212.00" timeLoss="51.23" traveltime="188.00">
        <ride waitingTime="212.00" vehicle="t_0" depart="3992.00" arrival="4180.00" arrivalPos="83.20" duration="188.00" routeLength="790.01" timeLoss="51.23"/>
    </personinfo>
    <personinfo id="39" depart="4044.00" type="DEFAULT_PEDTYPE" speedFactor="1.04" duration="198.00" waitingTime="103.00" timeLoss="6.40" traveltime="95.00">
        <ride waitingTime="103.00" vehicle="t_1" depart="4147.00" arrival="4242.00" arrivalPos="83.20" duration="95.00" routeLength="262.22" timeLoss="6.40"/>
    </personinfo>
    <personinfo id="38" depart="3965.00" type="DEFAULT_PEDTYPE" speedFactor="0.87" duration="476.00" waitingTime="328.00" timeLoss="59.86" traveltime="148.00">
        <ride waitingTime="328.00" vehicle="t_0" depart="4293.00" arrival="4441.00" arrivalPos="79.20" duration="148.00" routeLength="280.71" timeLoss="59.86"/>
    </personinfo>
    <personinfo id="40" depart="4118.00" type="DEFAULT_PEDTYPE" speedFactor="0.92" duration="442.00" waitingTime="350.00" timeLoss="5.79" traveltime="92.00">
        <ride waitingTime="350.00" vehicle="t_0" depart="4468.00" arrival="4560.00" arrivalPos="0.20" duration="92.00" routeLength="255.30" timeLoss="5.79"/>
    </personinfo>
    <personinfo id="41" depart="4333.00" type="DEFAULT_PEDTYPE" speedFactor="0.98" duration="271.00" waitingTime="174.00" timeLoss="8.14" traveltime="97.00">
        <ride waitingTime="174.00" vehicle="t_1" depart="4507.00" arrival="4604.00" arrivalPos="0.20" duration="97.00" routeLength="290.25" timeLoss="8.14"/>
    </personinfo>
    <personinfo id="43" depart="4438.00" type="DEFAULT_PEDTYPE" speedFactor="1.00" duration="285.00" waitingTime="197.00" timeLoss="5.64" traveltime="88.00">
        <ride waitingTime="197.00" vehicle="t_1" depart="4635.00" arrival="4723.00" arrivalPos="79.20" duration="88.00" routeLength="206.83" timeLoss="5.64"/>
    </personinfo>
    <personinfo id="42" depart="4358.00" type="DEFAULT_PEDTYPE" speedFactor="1.05" duration="397.00" waitingTime="234.00" timeLoss="54.05" traveltime="163.00">
        <ride waitingTime="234.00" vehicle="t_0" depart="4592.00" arrival="4755.00" arrivalPos="78.65" duration="163.00" routeLength="564.47" timeLoss="54.05"/>
    </personinfo>
    <personinfo id="45" depart="4680.00" type="DEFAULT_PEDTYPE" speedFactor="1.08" duration="260.00" waitingTime="93.00" timeLoss="14.39" traveltime="167.00">
        <ride waitingTime="93.00" vehicle="t_0" depart="4773.00" arrival="4940.00" arrivalPos="83.20" duration="167.00" routeLength="553.37" timeLoss="14.39"/>
    </personinfo>
    <personinfo id="44" depart="4461.00" type="DEFAULT_PEDTYPE" speedFactor="1.05" duration="495.00" waitingTime="361.00" timeLoss="30.10" traveltime="134.00">
        <ride waitingTime="361.00" vehicle="t_1" depart="4822.00" arrival="4956.00" arrivalPos="78.65" duration="134.00" routeLength="464.30" timeLoss="30.10"/>
    </personinfo>
    <personinfo id="46" depart="4872.00" type="DEFAULT_PEDTYPE" speedFactor="0.97" duration="218.00" waitingTime="94.00" timeLoss="9.11" traveltime="124.00">
        <ride waitingTime="94.00" vehicle="t_0" depart="4966.00" arrival="5090.00" arrivalPos="0.20" duration="124.00" routeLength="314.67" timeLoss="9.11"/>
    </personinfo>
    <personinfo id="47" depart="4953.00" type="DEFAULT_PEDTYPE" speedFactor="1.03" duration="257.00" waitingTime="56.00" timeLoss="21.54" traveltime="201.00">
        <ride waitingTime="56.00" vehicle="t_1" depart="5009.00" arrival="5210.00" arrivalPos="83.20" duration="201.00" routeLength="372.91" timeLoss="21.54"/>
    </personinfo>
    <personinfo id="48" depart="5024.00" type="DEFAULT_PEDTYPE" speedFactor="0.87" duration="226.00" waitingTime="123.00" timeLoss="10.07" traveltime="103.00">
        <ride waitingTime="123.00" vehicle="t_0" depart="5147.00" arrival="5250.00" arrivalPos="79.20" duration="103.00" routeLength="340.15" timeLoss="10.07"/>
    </personinfo>
    <personinfo id="49" depart="5047.00" type="DEFAULT_PEDTYPE" speedFactor="0.99" duration="353.00" waitingTime="188.00" timeLoss="10.34" traveltime="165.00">
        <ride waitingTime="188.00" vehicle="t_1" depart="5235.00" arrival="5400.00" arrivalPos="78.65" duration="165.00" routeLength="376.46" timeLoss="10.34"/>
    </personinfo>
    <personinfo id="50" depart="5075.00" type="DEFAULT_PEDTYPE" speedFactor="0.88" duration="535.00" waitingTime="376.00" timeLoss="63.65" traveltime="159.00">
        <ride waitingTime="376.00" vehicle="t_1" depart="5451.00" arrival="5610.00" arrivalPos="83.20" duration="159.00" routeLength="363.58" timeLoss="63.65"/>
    </personinfo>
    <personinfo id="55" depart="5543.00" type="DEFAULT_PEDTYPE" speedFactor="0.96" duration="142.00" waitingTime="46.00" timeLoss="6.03" traveltime="96.00">
        <ride waitingTime="46.00" vehicle="t_0" depart="5589.00" arrival="5685.00" arrivalPos="78.65" duration="96.00" routeLength="299.48" timeLoss="6.03"/>
    </personinfo>
    <personinfo id="51" depart="5098.00" type="DEFAULT_PEDTYPE" speedFactor="1.10" duration="738.00" waitingTime="624.00" timeLoss="24.71" traveltime="114.00">
        <ride waitingTime="624.00" vehicle="t_1" depart="5722.00" arrival="5836.00" arrivalPos="79.20" duration="114.00" routeLength="279.49" timeLoss="24.71"/>
    </personinfo>
    <personinfo id="56" depart="5612.00" type="DEFAULT_PEDTYPE" speedFactor="1.01" duration="253.00" waitingTime="112.00" timeLoss="27.65" traveltime="141.00">
        <ride waitingTime="112.00" vehicle="t_0" depart="5724.00" arrival="5865.00" arrivalPos="83.20" duration="141.00" routeLength="688.75" timeLoss="27.65"/>
    </personinfo>
    <personinfo id="52" depart="5122.00" type="DEFAULT_PEDTYPE" speedFactor="1.03" duration="904.00" waitingTime="762.00" timeLoss="46.29" traveltime="142.00">
        <ride waitingTime="762.00" vehicle="t_1" depart="5884.00" arrival="6026.00" arrivalPos="78.65" duration="142.00" routeLength="362.19" timeLoss="46.29"/>
    </personinfo>
    <personinfo id="57" depart="5680.00" type="DEFAULT_PEDTYPE" speedFactor="1.04" duration="366.00" waitingTime="268.00" timeLoss="9.55" traveltime="98.00">
        <ride waitingTime="268.00" vehicle="t_0" depart="5948.00" arrival="6046.00" arrivalPos="0.20" duration="98.00" routeLength="282.57" timeLoss="9.55"/>
    </personinfo>
    <personinfo id="59" depart="6051.00" type="DEFAULT_PEDTYPE" speedFactor="0.92" duration="154.00" waitingTime="12.00" timeLoss="42.79" traveltime="142.00">
        <ride waitingTime="12.00" vehicle="t_0" depart="6063.00" arrival="6205.00" arrivalPos="83.20" duration="142.00" routeLength="461.42" timeLoss="42.79"/>
    </personinfo>
    <personinfo id="53" depart="5149.00" type="DEFAULT_PEDTYPE" speedFactor="1.25" duration="1058.00" waitingTime="979.00" timeLoss="2.00" traveltime="79.00">
        <ride waitingTime="979.00" vehicle="t_1" depart="6128.00" arrival="6207.00" arrivalPos="78.65" duration="79.00" routeLength="162.28" timeLoss="2.00"/>
    </personinfo>
    <personinfo id="54" depart="5337.00" type="DEFAULT_PEDTYPE" speedFactor="0.95" duration="1080.00" waitingTime="997.00" timeLoss="3.84" traveltime="83.00">
        <ride waitingTime="997.00" vehicle="t_1" depart="6334.00" arrival="6417.00" arrivalPos="83.20" duration="83.00" routeLength="164.01" timeLoss="3.84"/>
    </personinfo>
    <personinfo id="61" depart="6319.00" type="DEFAULT_PEDTYPE" speedFactor="0.87" duration="197.00" waitingTime="88.00" timeLoss="10.14" traveltime="109.00">
        <ride waitingTime="88.00" vehicle="t_0" depart="6407.00" arrival="6516.00" arrivalPos="83.20" duration="109.00" routeLength="457.22" timeLoss="10.14"/>
    </personinfo>
    <personinfo id="58" depart="5869.00" type="DEFAULT_PEDTYPE" speedFactor="1.08" duration="730.00" waitingTime="572.00" timeLoss="42.47" traveltime="158.00">
        <ride waitingTime="572.00" vehicle="t_1" depart="6441.00" arrival="6599.00" arrivalPos="83.20" duration="158.00" routeLength="553.34" timeLoss="42.47"/>
    </personinfo>
    <personinfo id="60" depart="6120.00" type="DEFAULT_PEDTYPE" speedFactor="1.19" duration="618.00" waitingTime="377.00" timeLoss="63.26" traveltime="241.00">
        <ride waitingTime="377.00" vehicle="t_1" depart="6497.00" arrival="6738.00" arrivalPos="0.20" duration="241.00" routeLength="577.28" timeLoss="63.26"/>
    </personinfo>
    <personinfo id="62" depart="6536.00" type="DEFAULT_PEDTYPE" speedFactor="1.08" duration="204.00" waitingTime="45.00" timeLoss="34.42" traveltime="159.00">
        <ride waitingTime="45.00" vehicle="t_0" depart="6581.00" arrival="6740.00" arrivalPos="83.20" duration="159.00" routeLength="350.26" timeLoss="34.42"/>
    </personinfo>
    <personinfo id="65" depart="6751.00" type="DEFAULT_PEDTYPE" speedFactor="1.11" duration="160.00" waitingTime="61.00" timeLoss="8.54" traveltime="99.00">
        <ride waitingTime="61.00" vehicle="t_1" depart="6812.00" arrival="6911.00" arrivalPos="79.20" duration="99.00" routeLength="305.39" timeLoss="8.54"/>
    </personinfo>
    <personinfo id="63" depart="6608.00" type="DEFAULT_PEDTYPE" speedFactor="1.13" duration="373.00" waitingTime="207.00" timeLoss="64.75" traveltime="166.00">
        <ride waitingTime="207.00" vehicle="t_0" depart="6815.00" arrival="6981.00" arrivalPos="78.65" duration="166.00" routeLength="452.07" timeLoss="64.75"/>
    </personinfo>
    <personinfo id="66" depart="6933.00" type="DEFAULT_PEDTYPE" speedFactor="0.93" duration="177.00" waitingTime="27.00" timeLoss="12.61" traveltime="150.00">
        <ride waitingTime="27.00" vehicle="t_1" depart="6960.00" arrival="7110.00" arrivalPos="78.65" duration="150.00" routeLength="342.25" timeLoss="12.61"/>
    </personinfo>
    <personinfo id="64" depart="6678.00" type="DEFAULT_PEDTYPE" speedFactor="0.96" duration="495.00" waitingTime="394.00" timeLoss="6.39" traveltime="101.00">
        <ride waitingTime="394.00" vehicle="t_0" depart="7072.00" arrival="7173.00" arrivalPos="79.20" duration="101.00" routeLength="376.16" timeLoss="6.39"/>
    </personinfo>
    <personinfo id="67" depart="6956.00" type="DEFAULT_PEDTYPE" speedFactor="1.03" duration="300.00" waitingTime="206.00" timeLoss="7.65" traveltime="94.00">
        <ride waitingTime="206.00" vehicle="t_1" depart="7162.00" arrival="7256.00" arrivalPos="79.20" duration="94.00" routeLength="246.34" timeLoss="7.65"/>
    </personinfo>
    <personinfo id="71" depart="7304.00" type="DEFAULT_PEDTYPE" speedFactor="1.05" duration="129.00" waitingTime="44.00" timeLoss="5.49" traveltime="85.00">
        <ride waitingTime="44.00" vehicle="t_0" depart="7348.00" arrival="7433.00" arrivalPos="83.20" duration="85.00" routeLength="199.40" timeLoss="5.49"/>
    </personinfo>
    <personinfo id="68" depart="6979.00" type="DEFAULT_PEDTYPE" speedFactor="1.10" duration="531.00" waitingTime="373.00" timeLoss="53.16" traveltime="158.00">
        <ride waitingTime="373.00" vehicle="t_1" depart="7352.00" arrival="7510.00" arrivalPos="79.20" duration="158.00" routeLength="376.33" timeLoss="53.16"/>
    </personinfo>
    <personinfo id="69" depart="7049.00" type="DEFAULT_PEDTYPE" speedFactor="0.96" duration="568.00" waitingTime="470.00" timeLoss="5.84" traveltime="98.00">
        <ride waitingTime="470.00" vehicle="t_1" depart="7519.00" arrival="7617.00" arrivalPos="78.65" duration="98.00" routeLength="299.47" timeLoss="5.84"/>
    </personinfo>
    <personinfo id="72" depart="7332.00" type="DEFAULT_PEDTYPE" speedFactor="0.94" duration="327.00" waitingTime="192.00" timeLoss="28.61" traveltime="135.00">
        <ride waitingTime="192.00" vehicle="t_0" depart="7524.00" arrival="7659.00" arrivalPos="83.20" duration="135.00" routeLength="445.29" timeLoss="28.61"/>
    </personinfo>
    <personinfo id="73" depart="7355.00" type="DEFAULT_PEDTYPE" speedFactor="1.02" duration="405.00" waitingTime="212.00" timeLoss="10.74" traveltime="193.00">
        <ride waitingTime="212.00" vehicle="t_0" depart="7567.00" arrival="7760.00" arrivalPos="83.20" duration="193.00" routeLength="650.15" timeLoss="10.74"/>
    </personinfo>
    <personinfo id="70" depart="7120.00" type="DEFAULT_PEDTYPE" speedFactor="1.11" duration="700.00" waitingTime="516.00" timeLoss="31.34" traveltime="184.00">
        <ride waitingTime="516.00" vehicle="t_1" depart="7636.00" arrival="7820.00" arrivalPos="83.20" duration="184.00" routeLength="442.70" timeLoss="31.34"/>
    </personinfo>
    <personinfo id="76" depart="7521.00" type="DEFAULT_PEDTYPE" speedFactor="0.96" duration="376.00" waitingTime="282.00" timeLoss="7.30" traveltime="94.00">
        <ride waitingTime="282.00" vehicle="t_0" depart="7803.00" arrival="7897.00" arrivalPos="83.20" duration="94.00" routeLength="253.82" timeLoss="7.30"/>
    </personinfo>
    <personinfo id="74" depart="7382.00" type="DEFAULT_PEDTYPE" speedFactor="1.00" duration="624.00" waitingTime="482.00" timeLoss="54.15" traveltime="142.00">
        <ride waitingTime="482.00" vehicle="t_1" depart="7864.00" arrival="8006.00" arrivalPos="78.65" duration="142.00" routeLength="256.11" timeLoss="54.15"/>
    </personinfo>
    <personinfo id="75" depart="7449.00" type="DEFAULT_PEDTYPE" speedFactor="1.13" duration="690.00" waitingTime="586.00" timeLoss="14.89" traveltime="104.00">
        <ride waitingTime="586.00" vehicle="t_1" depart="8035.00" arrival="8139.00" arrivalPos="79.20" duration="104.00" routeLength="306.14" timeLoss="14.89"/>
    </personinfo>
    <personinfo id="79" depart="7953.00" type="DEFAULT_PEDTYPE" speedFactor="0.90" duration="193.00" waitingTime="118.00" timeLoss="2.66" traveltime="75.00">
        <ride waitingTime="118.00" vehicle="t_0" depart="8071.00" arrival="8146.00" arrivalPos="78.65" duration="75.00" routeLength="94.96" timeLoss="2.66"/>
    </personinfo>
    <personinfo id="80" depart="7976.00" type="DEFAULT_PEDTYPE" speedFactor="0.98" duration="304.00" waitingTime="179.00" timeLoss="7.59" traveltime="125.00">
        <ride waitingTime="179.00" vehicle="t_0" depart="8155.00" arrival="8280.00" arrivalPos="79.20" duration="125.00" routeLength="372.70" timeLoss="7.59"/>
    </personinfo>
    <personinfo id="77" depart="7727.00" type="DEFAULT_PEDTYPE" speedFactor="0.96" duration="660.00" waitingTime="485.00" timeLoss="57.20" traveltime="175.00">
        <ride waitingTime="485.00" vehicle="t_1" depart="8212.00" arrival="8387.00" arrivalPos="83.20" duration="175.00" routeLength="648.11" timeLoss="57.20"/>
    </personinfo>
    <personinfo id="81" depart="8162.00" type="DEFAULT_PEDTYPE" speedFactor="1.18" duration="327.00" waitingTime="169.00" timeLoss="56.93" traveltime="158.00">
        <ride waitingTime="169.00" vehicle="t_0" depart="8331.00" arrival="8489.00" arrivalPos="78.65" duration="158.00" routeLength="447.15" timeLoss="56.93"/>
    </personinfo>
    <personinfo id="78" depart="7751.00" type="DEFAULT_PEDTYPE" speedFactor="1.14" duration="758.00" waitingTime="448.00" timeLoss="73.49" traveltime="310.00">
        <ride waitingTime="448.00" vehicle="t_1" depart="8199.00" arrival="8509.00" arrivalPos="83.20" duration="310.00" routeLength="1251.88" timeLoss="73.49"/>
    </personinfo>
    <personinfo id="82" depart="8185.00" type="DEFAULT_PEDTYPE" speedFactor="0.95" duration="444.00" waitingTime="326.00" timeLoss="31.35" traveltime="118.00">
        <ride waitingTime="326.00" vehicle="t_0" depart="8511.00" arrival="8629.00" arrivalPos="0.20" duration="118.00" routeLength="278.56" timeLoss="31.35"/>
    </personinfo>
    <personinfo id="83" depart="8210.00" type="DEFAULT_PEDTYPE" speedFactor="1.00" duration="556.00" waitingTime="432.00" timeLoss="39.11" traveltime="124.00">
        <ride waitingTime="432.00" vehicle="t_0" depart="8642.00" arrival="8766.00" arrivalPos="79.20" duration="124.00" routeLength="271.41" timeLoss="39.11"/>
    </personinfo>
    <personinfo id="86" depart="8572.00" type="DEFAULT_PEDTYPE" speedFactor="1.04" duration="252.00" waitingTime="37.00" timeLoss="107.23" traveltime="215.00">
        <ride waitingTime="37.00" vehicle="t_1" depart="8609.00" arrival="8824.00" arrivalPos="78.65" duration="215.00" routeLength="527.61" timeLoss="107.23"/>
    </personinfo>